 Gaussian 09, Revision B.01,
 Gaussian 09:  EM64L-G09RevB.01 12-Aug-2010

 --------------------------------------------------------
 # m062x/6-311+g(2df,2p) opt=(ts,calcfc,noeigentest) freq
 --------------------------------------------------------

 ------------------
 OO+[H]_[H][H]+[O]O
 ------------------
 Symbolic Z-matrix:
 Charge =  0 Multiplicity = 2

 SCF Done:  E(UM062X) =  -152.027227198     A.U. after   19 cycles
 SCF Done:  E(UM062X) =  -152.028876099     A.U. after   17 cycles
 SCF Done:  E(UM062X) =  -152.029090628     A.U. after   15 cycles
 SCF Done:  E(UM062X) =  -152.029090926     A.U. after   12 cycles
 SCF Done:  E(UM062X) =  -152.029092381     A.U. after   11 cycles
 SCF Done:  E(UM062X) =  -152.029094877     A.U. after   11 cycles
 SCF Done:  E(UM062X) =  -152.029095073     A.U. after   11 cycles
 Optimization completed.
    -- Stationary point found.
 Normal termination of Gaussian 09 at Fri Aug 21 09:05:09 2015.

 ----------------------------------------------------------------------
 #N Geom=AllCheck Guess=TCheck SCRF=Check GenChk UM062X/6-311+G(2df,2p)
  Freq
 ----------------------------------------------------------------------

 OO+[H]_[H][H]+[O]O
 ------------------
 Redundant internal coordinates taken from checkpoint file:
 /scratch/bhoorasingh.p/QMfiles/Reactions/H_Abstraction/OO+[H]_[H][H]+[O]O/m062x/OO+[H]_[H][H]+[O]O.chk
 Charge =  0 Multiplicity = 2

                         Standard orientation:
 ---------------------------------------------------------------------
 Center     Atomic      Atomic             Coordinates (Angstroms)
 Number     Number       Type             X           Y           Z
 ---------------------------------------------------------------------
      1          8           0        0.500977   -0.403491    0.017999
      2          8           0       -0.748510    0.163089   -0.119854
      3          1           0        1.222520    0.459036   -0.008647
      4          1           0       -1.069396    0.221897    0.788489
      5          1           0        1.827140    1.242282    0.034999
 ---------------------------------------------------------------------

 SCF Done:  E(UM062X) =  -152.029095073     A.U. after    1 cycles

 The electronic state is 2-A.
 Alpha  occ. eigenvalues --  -19.71602 -19.71034  -1.29999  -1.01575  -0.66534
 Alpha  occ. eigenvalues --   -0.61571  -0.54876  -0.44400  -0.40287  -0.35746
 Alpha virt. eigenvalues --    0.05069   0.09430   0.14870   0.16484   0.17795
 Alpha virt. eigenvalues --    0.19550   0.19930   0.20975   0.21938   0.27438
 Alpha virt. eigenvalues --    0.33748   0.44767   0.50061   0.53440   0.56169

  Beta  occ. eigenvalues --  -19.70849 -19.70718  -1.28279  -0.99147  -0.64121
  Beta  occ. eigenvalues --   -0.58396  -0.52720  -0.39605  -0.38419
  Beta virt. eigenvalues --   -0.12030   0.05140   0.09502   0.12503   0.15053
  Beta virt. eigenvalues --    0.16496   0.18927   0.19220   0.20752   0.21504
  Beta virt. eigenvalues --    0.27269   0.33059   0.44102   0.50106   0.52768

 Mulliken atomic charges:
              1
     1  O   -0.137789
     2  O   -0.220861
     3  H    0.116567
     4  H    0.259715
     5  H   -0.017632
 Sum of Mulliken atomic charges =   0.00000

 Dipole moment (field-independent basis, Debye):
    X=             -0.2422    Y=              0.9469    Z=              1.5555  Tot=              1.8371
 Quadrupole moment (field-independent basis, Debye-Ang):
   XX=            -11.4518   YY=            -13.7332   ZZ=            -12.5162
   XY=              0.6409   XZ=             -2.0578   YZ=              0.4293

  Exact polarizability:  33.881  10.237  22.340  -0.435   0.376  12.870
 Approx polarizability:  32.169   7.648  22.957  -0.049   0.481  13.943

 ******    1 imaginary frequencies (negative Signs) ******

                     1                      2                      3
                     A                      A                      A
 Frequencies -- -2132.5793               393.9728               470.9991
 Red. masses --     1.0537                 1.2878                 1.1012
 Frc consts  --     2.8234                 0.1178                 0.1439
 IR Inten    --  1420.0367                 0.7651               108.6714

                     4                      5                      6
                     A                      A                      A
 Frequencies --   741.8147              1098.6135              1309.8119
 Red. masses --     1.0258                10.4219                 1.0716
 Frc consts  --     0.3326                 7.4111                 1.0832
 IR Inten    --    44.8195                29.2795                 8.6500

                     7                      8                      9
                     A                      A                      A
 Frequencies --  1449.3623              1523.9971              3823.7725
 Red. masses --     1.0985                 1.1151                 1.0682
 Frc consts  --     1.3595                 1.5259                 9.2024
 IR Inten    --    40.4680                 4.1344                66.4986

 - Thermochemistry -
 -------------------
 Temperature   298.150 Kelvin.  Pressure   1.00000 Atm.
 Atom     1 has atomic number  8 and mass  15.99491

 Molecular mass:    35.01330 amu.
 Principal axes and moments of inertia in atomic units:
                           1         2         3
     Eigenvalues --    18.08673  72.20468  84.52093
           X            0.98275   0.18166  -0.03459
           Y           -0.18019   0.98275   0.04159
           Z            0.04154  -0.03464   0.99854
 This molecule is an asymmetric top.
 Rotational symmetry number  1.
 Rotational temperatures (Kelvin)      4.78880     1.19956     1.02476
 Rotational constants (GHZ):          99.78262    24.99480    21.35259
    1 imaginary frequencies ignored.
 Zero-point vibrational energy      64672.2 (Joules/Mol)
                                   15.45702 (Kcal/Mol)
 Warning -- explicit consideration of   2 degrees of freedom as
           vibrations may cause significant error
 Vibrational temperatures:    566.84   677.66  1067.30  1580.66  1884.52
          (Kelvin)           2085.31  2192.69  5501.55

 Zero-point correction=                           0.024632 (Hartree/Particle)
 Thermal correction to Energy=                    0.028170
 Thermal correction to Enthalpy=                  0.029114
 Thermal correction to Gibbs Free Energy=         0.000890
 Sum of electronic and zero-point Energies=           -152.004463
 Sum of electronic and thermal Energies=              -152.000925
 Sum of electronic and thermal Enthalpies=            -151.999981
 Sum of electronic and thermal Free Energies=         -152.028205

                     E (Thermal)             CV                S
                      KCal/Mol        Cal/Mol-Kelvin    Cal/Mol-Kelvin
 Total                   17.677             10.093             59.402
 Electronic               0.000              0.000              1.377
 Translational            0.889              2.981             36.590
 Rotational               0.889              2.981             19.340
 Vibrational             15.899              4.131              2.094
 Vibration     1          0.761              1.483              0.985
 Vibration     2          0.828              1.314              0.735

 Optimization completed.
    -- Stationary point found.
 Normal termination of Gaussian 09 at Fri Aug 21 09:05:37 2015.
