 Gaussian 09, Revision B.01,
 Gaussian 09:  EM64L-G09RevB.01 12-Aug-2010

 --------------------------------------------------------
 # m062x/6-311+g(2df,2p) opt=(ts,calcfc,noeigentest) freq
 --------------------------------------------------------

 ------------------
 C+[H]_[CH3]+[H][H]
 ------------------
 Symbolic Z-matrix:
 Charge =  0 Multiplicity = 2

 SCF Done:  E(UM062X) =  -40.9724242462     A.U. after   12 cycles
 SCF Done:  E(UM062X) =  -40.9728608048     A.U. after   13 cycles
 SCF Done:  E(UM062X) =  -40.9728777061     A.U. after   12 cycles
 SCF Done:  E(UM062X) =  -40.9728782832     A.U. after   13 cycles
 Optimization completed.
    -- Stationary point found.
 Normal termination of Gaussian 09 at Sun Mar  8 12:17:46 2015.

 ----------------------------------------------------------------------
 #N Geom=AllCheck Guess=TCheck SCRF=Check GenChk UM062X/6-311+G(2df,2p)
  Freq
 ----------------------------------------------------------------------

 C+[H]_[CH3]+[H][H]
 ------------------
 Redundant internal coordinates taken from checkpoint file:
 /scratch/bhoorasingh.p/QMfiles/Reactions/H_Abstraction/C+[H]_[CH3]+[H][H]/m062x/C+[H]_[CH3]+[H][H].chk
 Charge =  0 Multiplicity = 2

                         Standard orientation:
 ---------------------------------------------------------------------
 Center     Atomic      Atomic             Coordinates (Angstroms)
 Number     Number       Type             X           Y           Z
 ---------------------------------------------------------------------
      1          1           0        2.020087   -0.000263   -0.000223
      2          6           0       -0.267226   -0.000033    0.000015
      3          1           0        1.126159    0.000002   -0.000772
      4          1           0       -0.514264    0.990875   -0.360247
      5          1           0       -0.515377   -0.807480   -0.677334
      6          1           0       -0.513248   -0.182934    1.038485
 ---------------------------------------------------------------------

 SCF Done:  E(UM062X) =  -40.9728782832     A.U. after    1 cycles

 The electronic state is 2-A.
 Alpha  occ. eigenvalues --  -10.54449  -0.79766  -0.51712  -0.48665  -0.48660
 Alpha  occ. eigenvalues --   -0.26516
 Alpha virt. eigenvalues --    0.03132   0.05373   0.05375   0.06877   0.17635
 Alpha virt. eigenvalues --    0.17638   0.19447   0.22505   0.40992   0.40994
 Alpha virt. eigenvalues --    0.41666   0.43440   0.48928   0.48941   0.54090

  Beta  occ. eigenvalues --  -10.53843  -0.77151  -0.47578  -0.47571  -0.46764
  Beta virt. eigenvalues --   -0.05070   0.03754   0.05628   0.05631   0.05916
  Beta virt. eigenvalues --    0.17926   0.17929   0.18088   0.22199   0.41056
  Beta virt. eigenvalues --    0.41060   0.41226   0.43914   0.49803   0.49815

 Mulliken atomic charges:
              1
     1  H   -0.079083
     2  C   -0.376913
     3  H    0.080140
     4  H    0.125288
     5  H    0.125253
     6  H    0.125316
 Sum of Mulliken atomic charges =   0.00000

 Dipole moment (field-independent basis, Debye):
    X=             -0.6553    Y=              0.0002    Z=              0.0001  Tot=              0.6553
 Quadrupole moment (field-independent basis, Debye-Ang):
   XX=            -11.6806   YY=             -9.4885   ZZ=             -9.4890
   XY=              0.0009   XZ=              0.0018   YZ=              0.0002

  Exact polarizability:  37.374  -0.010  17.061  -0.005  -0.022  17.067
 Approx polarizability:  34.556  -0.002  18.180   0.003  -0.001  18.179

 ******    1 imaginary frequencies (negative Signs) ******

                     1                      2                      3
                     A                      A                      A
 Frequencies -- -1602.6217               479.5528               484.6392
 Red. masses --     1.1190                 1.0374                 1.0371
 Frc consts  --     1.6934                 0.1406                 0.1435
 IR Inten    --    47.2849                 0.2305                 0.1677

                     4                      5                      6
                     A                      A                      A
 Frequencies --  1075.2439              1083.7252              1084.5731
 Red. masses --     1.0776                 1.0603                 1.0587
 Frc consts  --     0.7340                 0.7337                 0.7338
 IR Inten    --     2.4239                 1.4106                 1.4158

                     7                      8                      9
                     A                      A                      A
 Frequencies --  1436.0221              1437.5936              1716.2018
 Red. masses --     1.0740                 1.0744                 1.1150
 Frc consts  --     1.3050                 1.3083                 1.9349
 IR Inten    --     4.2098                 4.1183                26.7228

                    10                     11                     12
                     A                      A                      A
 Frequencies --  3088.4506              3231.5909              3239.5531
 Red. masses --     1.0174                 1.1123                 1.1122
 Frc consts  --     5.7174                 6.8437                 6.8768
 IR Inten    --     0.4663                 4.4546                 4.2840

 - Thermochemistry -
 -------------------
 Temperature   298.150 Kelvin.  Pressure   1.00000 Atm.
 Atom     1 has atomic number  1 and mass   1.00783

 Molecular mass:    17.03913 amu.
 Principal axes and moments of inertia in atomic units:
                           1         2         3
     Eigenvalues --    12.00029  30.63618  30.63731
           X            1.00000  -0.00001   0.00000
           Y            0.00001   1.00000   0.00001
           Z            0.00000  -0.00001   1.00000
 This molecule is an asymmetric top.
 Rotational symmetry number  1.
 Rotational temperatures (Kelvin)      7.21764     2.82717     2.82707
 Rotational constants (GHZ):         150.39145    58.90881    58.90664
    1 imaginary frequencies ignored.
 Zero-point vibrational energy     109800.1 (Joules/Mol)
                                   26.24286 (Kcal/Mol)
 Warning -- explicit consideration of   2 degrees of freedom as
           vibrations may cause significant error
 Vibrational temperatures:    689.97   697.29  1547.03  1559.24  1560.46
          (Kelvin)           2066.11  2068.37  2469.23  4443.59  4649.53
                             4660.99

 Zero-point correction=                           0.041821 (Hartree/Particle)
 Thermal correction to Energy=                    0.045224
 Thermal correction to Enthalpy=                  0.046168
 Thermal correction to Gibbs Free Energy=         0.020255
 Sum of electronic and zero-point Energies=            -40.931058
 Sum of electronic and thermal Energies=               -40.927654
 Sum of electronic and thermal Enthalpies=             -40.926710
 Sum of electronic and thermal Free Energies=          -40.952624

                     E (Thermal)             CV                S
                      KCal/Mol        Cal/Mol-Kelvin    Cal/Mol-Kelvin
 Total                   28.378              9.652             54.539
 Electronic               0.000              0.000              1.377
 Translational            0.889              2.981             34.443
 Rotational               0.889              2.981             17.073
 Vibrational             26.601              3.690              1.646
 Vibration     1          0.836              1.295              0.711
 Vibration     2          0.841              1.284              0.698

 Optimization completed.
    -- Stationary point found.
 Normal termination of Gaussian 09 at Sun Mar  8 12:18:00 2015.
