 Gaussian 09, Revision B.01,
 Gaussian 09:  EM64L-G09RevB.01 12-Aug-2010

 ----------------------------------------------------------
 # m062x/6-311+g(2df,2p) Opt=(ModRedun,Loose) Int(Grid=SG1)
 ----------------------------------------------------------

 ----------------------
 [H]+[O]O_[H][H]+[O][O]
 ----------------------
 Symbolic Z-matrix:
 Charge =  0 Multiplicity = 3

 SCF Done:  E(UM062X) =  -151.393669960     A.U. after   16 cycles
 SCF Done:  E(UM062X) =  -151.401653448     A.U. after   15 cycles
 SCF Done:  E(UM062X) =  -151.402818771     A.U. after   14 cycles
 SCF Done:  E(UM062X) =  -151.403110236     A.U. after   14 cycles
 SCF Done:  E(UM062X) =  -151.403163016     A.U. after   12 cycles
 SCF Done:  E(UM062X) =  -151.403193965     A.U. after   13 cycles
 SCF Done:  E(UM062X) =  -151.403206197     A.U. after   11 cycles
 Optimization completed.
    -- Stationary point found.

                         Standard orientation:
 ---------------------------------------------------------------------
 Center     Atomic      Atomic             Coordinates (Angstroms)
 Number     Number       Type             X           Y           Z
 ---------------------------------------------------------------------
      1          8           0       -0.343741   -0.368726   -0.012139
      2          8           0        0.736748    0.207721    0.000438
      3          1           0       -1.221951    0.339173    0.205607
      4          1           0       -1.922104    0.948867   -0.112000
 ---------------------------------------------------------------------

 The electronic state is 3-A.
 Alpha  occ. eigenvalues --  -19.80614 -19.77406  -1.44809  -1.00719  -0.72582
 Alpha  occ. eigenvalues --   -0.67530  -0.65066  -0.46534  -0.41695  -0.35516
 Alpha virt. eigenvalues --    0.09880   0.11412   0.12913   0.16728   0.18045
 Alpha virt. eigenvalues --    0.19420   0.21441   0.23016   0.29364   0.31998
 Alpha virt. eigenvalues --    0.38450   0.50872   0.60592   0.66217   0.84444

  Beta  occ. eigenvalues --  -19.78652 -19.75292  -1.38743  -0.92346  -0.65670
  Beta  occ. eigenvalues --   -0.58817  -0.55048  -0.36959
  Beta virt. eigenvalues --   -0.11091  -0.08110   0.09523   0.11332   0.12385
  Beta virt. eigenvalues --    0.16026   0.16859   0.18997   0.21523   0.22996
  Beta virt. eigenvalues --    0.30580   0.32653   0.37754   0.50974   0.60928

 Mulliken atomic charges:
              1
     1  O    0.112675
     2  O   -0.079854
     3  H    0.032505
     4  H   -0.065326
 Sum of Mulliken atomic charges =   0.00000

 Dipole moment (field-independent basis, Debye):
    X=             -0.2202    Y=             -0.1811    Z=              0.1319  Tot=              0.3141
 Quadrupole moment (field-independent basis, Debye-Ang):
   XX=            -13.4062   YY=            -12.9765   ZZ=            -12.1782
   XY=              0.2806   XZ=             -0.0459   YZ=             -0.0941

 Normal termination of Gaussian 09 at Sun Jul 30 15:42:05 2017.
