 Gaussian 09, Revision B.01,
 Gaussian 09:  EM64L-G09RevB.01 12-Aug-2010

 ----------------------------------------------------------
 # m062x/6-311+g(2df,2p) Opt=(ModRedun,Loose) Int(Grid=SG1)
 ----------------------------------------------------------

 ------------------------------------------
 [O]CC1C=CC=CC=1+[O]O_OO+[O][CH]C1C=CC=CC=1
 ------------------------------------------
 Symbolic Z-matrix:
 Charge =  0 Multiplicity = 3

 SCF Done:  E(UM062X) =  -496.890693749     A.U. after   26 cycles
 SCF Done:  E(UM062X) =  -496.913930435     A.U. after   23 cycles
 SCF Done:  E(UM062X) =  -496.925496237     A.U. after   22 cycles
 SCF Done:  E(UM062X) =  -496.929287814     A.U. after   22 cycles
 SCF Done:  E(UM062X) =  -496.932917236     A.U. after   24 cycles
 SCF Done:  E(UM062X) =  -496.895606033     A.U. after   27 cycles
 SCF Done:  E(UM062X) =  -496.935315749     A.U. after   26 cycles
 SCF Done:  E(UM062X) =  -496.937389927     A.U. after   26 cycles
 SCF Done:  E(UM062X) =  -496.937711959     A.U. after   22 cycles
 SCF Done:  E(UM062X) =  -496.937899338     A.U. after   21 cycles
 SCF Done:  E(UM062X) =  -496.942459282     A.U. after   20 cycles
 SCF Done:  E(UM062X) =  -496.942635530     A.U. after   21 cycles
 SCF Done:  E(UM062X) =  -496.941983636     A.U. after   23 cycles
 SCF Done:  E(UM062X) =  -496.943109106     A.U. after   25 cycles
 SCF Done:  E(UM062X) =  -496.943268973     A.U. after   21 cycles
 SCF Done:  E(UM062X) =  -496.943295446     A.U. after   20 cycles
 SCF Done:  E(UM062X) =  -496.943347212     A.U. after   19 cycles
 SCF Done:  E(UM062X) =  -496.943370480     A.U. after   19 cycles
 SCF Done:  E(UM062X) =  -496.943390038     A.U. after   19 cycles
 SCF Done:  E(UM062X) =  -496.943390365     A.U. after   15 cycles
 Optimization completed.
    -- Stationary point found.

                         Standard orientation:
 ---------------------------------------------------------------------
 Center     Atomic      Atomic             Coordinates (Angstroms)
 Number     Number       Type             X           Y           Z
 ---------------------------------------------------------------------
      1          6           0        1.352756   -0.965139    0.682819
      2          6           0       -0.073786   -0.594179    0.384845
      3          6           0       -0.854127    0.075802    1.331626
      4          6           0       -0.599012   -0.810288   -0.893868
      5          6           0       -2.127526    0.516312    1.009653
      6          6           0       -2.642022    0.305077   -0.266317
      7          6           0       -1.876178   -0.360734   -1.213400
      8          8           0        2.021076   -1.652460   -0.183473
      9          1           0        1.857006    0.235932    0.485125
     10          1           0        1.553837   -1.123604    1.755900
     11          1           0       -0.454388    0.242865    2.324623
     12          1           0       -2.723223    1.029689    1.751444
     13          1           0       -3.634116    0.655311   -0.513922
     14          1           0       -2.275988   -0.538874   -2.202059
     15          1           0        0.006126   -1.352510   -1.608685
     16          8           0        1.474487    1.657203   -0.864876
     17          8           0        2.232206    1.357088    0.136823
     18          1           0        0.767962    0.955441   -0.912375
 ---------------------------------------------------------------------

 The electronic state is 3-A.
 Alpha  occ. eigenvalues --  -19.82066 -19.80081 -19.59917 -10.57569 -10.56538
 Alpha  occ. eigenvalues --  -10.56035 -10.56019 -10.55784 -10.55594 -10.55447
 Alpha  occ. eigenvalues --   -1.43740  -1.12736  -1.07307  -0.98135  -0.87666
 Alpha  occ. eigenvalues --   -0.86129  -0.78608  -0.73688  -0.70665  -0.68071
 Alpha  occ. eigenvalues --   -0.66430  -0.65354  -0.60550  -0.55258  -0.54867
 Alpha  occ. eigenvalues --   -0.53549  -0.50841  -0.50295  -0.49302  -0.47718
 Alpha  occ. eigenvalues --   -0.46051  -0.44621  -0.42872  -0.41474  -0.34590
 Alpha  occ. eigenvalues --   -0.33144  -0.32570  -0.25389
 Alpha virt. eigenvalues --   -0.00648   0.00296   0.00712   0.01726   0.02791
 Alpha virt. eigenvalues --    0.03539   0.04440   0.04920   0.05372   0.06983
 Alpha virt. eigenvalues --    0.07326   0.07643   0.08120   0.10160   0.10441

  Beta  occ. eigenvalues --  -19.81093 -19.78415 -19.58817 -10.57467 -10.56538
  Beta  occ. eigenvalues --  -10.56050 -10.56033 -10.55754 -10.55561 -10.55416
  Beta  occ. eigenvalues --   -1.39841  -1.09522  -1.01998  -0.97969  -0.87216
  Beta  occ. eigenvalues --   -0.86060  -0.76246  -0.72330  -0.70547  -0.65692
  Beta  occ. eigenvalues --   -0.62649  -0.60114  -0.56777  -0.54893  -0.53290
  Beta  occ. eigenvalues --   -0.51368  -0.50454  -0.50049  -0.47116  -0.46524
  Beta  occ. eigenvalues --   -0.42471  -0.41372  -0.39274  -0.32899  -0.31453
  Beta  occ. eigenvalues --   -0.30536
  Beta virt. eigenvalues --   -0.14281  -0.05366  -0.00475   0.00434   0.01643
  Beta virt. eigenvalues --    0.01980   0.02887   0.03680   0.04485   0.04969
  Beta virt. eigenvalues --    0.05493   0.07120   0.07400   0.07741   0.08144

 Mulliken atomic charges:
              1
     1  C   -0.537987
     2  C    0.579841
     3  C   -0.445393
     4  C   -0.456789
     5  C   -0.096831
     6  C   -0.232090
     7  C   -0.073717
     8  O   -0.401076
     9  H    0.333168
    10  H    0.164257
    11  H    0.164368
    12  H    0.149935
    13  H    0.150629
    14  H    0.158136
    15  H    0.217779
    16  O   -0.031754
    17  O   -0.025864
    18  H    0.383387
 Sum of Mulliken atomic charges =   0.00000

 Dipole moment (field-independent basis, Debye):
    X=             -2.6977    Y=              3.0942    Z=              0.2839  Tot=              4.1149
 Quadrupole moment (field-independent basis, Debye-Ang):
   XX=            -62.1030   YY=            -65.9288   ZZ=            -53.6371
   XY=              4.0423   XZ=              2.5220   YZ=              0.3026

 Normal termination of Gaussian 09 at Fri Sep 29 10:50:30 2017.
