 Gaussian 09, Revision B.01,
 Gaussian 09:  EM64L-G09RevB.01 12-Aug-2010

 --------------------------------------------------------
 # m062x/6-311+g(2df,2p) opt=(ts,calcfc,noeigentest) freq
 --------------------------------------------------------

 ------------------------------------------
 [O]CC1C=CC=CC=1+[O]O_OO+[O][CH]C1C=CC=CC=1
 ------------------------------------------
 Symbolic Z-matrix:
 Charge =  0 Multiplicity = 3

 SCF Done:  E(UM062X) =  -497.047563978     A.U. after   18 cycles
 SCF Done:  E(UM062X) =  -497.054157496     A.U. after   16 cycles
 SCF Done:  E(UM062X) =  -497.056936535     A.U. after   16 cycles
 SCF Done:  E(UM062X) =  -497.057782039     A.U. after   17 cycles
 SCF Done:  E(UM062X) =  -497.058447517     A.U. after   16 cycles
 SCF Done:  E(UM062X) =  -497.058611725     A.U. after   15 cycles
 SCF Done:  E(UM062X) =  -497.058891880     A.U. after   15 cycles
 SCF Done:  E(UM062X) =  -497.059049054     A.U. after   13 cycles
 SCF Done:  E(UM062X) =  -497.059107755     A.U. after   13 cycles
 SCF Done:  E(UM062X) =  -497.059089693     A.U. after   13 cycles
 SCF Done:  E(UM062X) =  -497.060032345     A.U. after   17 cycles
 SCF Done:  E(UM062X) =  -497.059846208     A.U. after   14 cycles
 SCF Done:  E(UM062X) =  -497.060005884     A.U. after   13 cycles
 SCF Done:  E(UM062X) =  -497.060024178     A.U. after   13 cycles
 SCF Done:  E(UM062X) =  -497.060037222     A.U. after   13 cycles
 SCF Done:  E(UM062X) =  -497.060036739     A.U. after   11 cycles
 SCF Done:  E(UM062X) =  -497.060036819     A.U. after   10 cycles
 SCF Done:  E(UM062X) =  -497.060036769     A.U. after    9 cycles
 SCF Done:  E(UM062X) =  -497.060036967     A.U. after   10 cycles
 Optimization completed.
    -- Stationary point found.
 Normal termination of Gaussian 09 at Sat Sep 30 14:32:16 2017.

 ----------------------------------------------------------------------
 #N Geom=AllCheck Guess=TCheck SCRF=Check GenChk UM062X/6-311+G(2df,2p)
  Freq
 ----------------------------------------------------------------------

 [O]CC1C=CC=CC=1+[O]O_OO+[O][CH]C1C=CC=CC=1
 ------------------------------------------
 Redundant internal coordinates taken from checkpoint file:
 /gss_gpfs_scratch/harms.n/QMscratch/[O]CC1C=CC=CC=1+[O]O_OO+[O][CH]C1C=CC=CC=1.chk
 Charge =  0 Multiplicity = 3

                         Standard orientation:
 ---------------------------------------------------------------------
 Center     Atomic      Atomic             Coordinates (Angstroms)
 Number     Number       Type             X           Y           Z
 ---------------------------------------------------------------------
      1          6           0        0.884926   -0.035351   -0.015922
      2          6           0       -0.625127   -0.049571   -0.005966
      3          6           0       -1.288694   -1.273414    0.019314
      4          6           0       -1.366302    1.123333   -0.018100
      5          6           0       -2.672714   -1.325167    0.041015
      6          6           0       -3.411939   -0.147914    0.032661
      7          6           0       -2.755513    1.072375    0.001483
      8          8           0        1.404384    1.262903   -0.216616
      9          1           0        1.252602   -0.459859    0.923149
     10          1           0        1.241032   -0.686500   -0.820371
     11          1           0       -0.714334   -2.193146    0.019415
     12          1           0       -3.176897   -2.281996    0.061212
     13          1           0       -4.492617   -0.185115    0.046665
     14          1           0       -3.325023    1.992170   -0.010325
     15          1           0       -0.848385    2.071106   -0.052300
     16          8           0        4.026772   -0.068318    0.553493
     17          8           0        4.004239   -0.686200   -0.461469
     18          1           0        1.992637    1.490517    0.502391
 ---------------------------------------------------------------------

 SCF Done:  E(UM062X) =  -497.060036967     A.U. after    1 cycles

 The electronic state is 3-A.
 Alpha  occ. eigenvalues --  -19.79903 -19.79777 -19.62981 -10.59359 -10.54653
 Alpha  occ. eigenvalues --  -10.54048 -10.53932 -10.53843 -10.53693 -10.53401
 Alpha  occ. eigenvalues --   -1.47476  -1.15623  -0.97235  -0.96374  -0.86693
 Alpha  occ. eigenvalues --   -0.84195  -0.77266  -0.69329  -0.68997  -0.68891
 Alpha  occ. eigenvalues --   -0.66603  -0.66013  -0.60189  -0.59342  -0.53947
 Alpha  occ. eigenvalues --   -0.52659  -0.49922  -0.49547  -0.48461  -0.44425
 Alpha  occ. eigenvalues --   -0.42202  -0.40913  -0.40760  -0.40546  -0.39808
 Alpha  occ. eigenvalues --   -0.36312  -0.30745  -0.29772
 Alpha virt. eigenvalues --    0.00913   0.01518   0.01923   0.02398   0.02653
 Alpha virt. eigenvalues --    0.04008   0.04646   0.04842   0.06912   0.07201
 Alpha virt. eigenvalues --    0.07870   0.08128   0.09679   0.10184   0.10931

  Beta  occ. eigenvalues --  -19.77425 -19.77330 -19.62975 -10.59356 -10.54654
  Beta  occ. eigenvalues --  -10.54048 -10.53932 -10.53843 -10.53693 -10.53401
  Beta  occ. eigenvalues --   -1.40363  -1.15606  -0.96373  -0.86716  -0.86497
  Beta  occ. eigenvalues --   -0.84194  -0.77250  -0.69045  -0.66646  -0.61077
  Beta  occ. eigenvalues --   -0.60100  -0.59427  -0.55697  -0.55545  -0.53791
  Beta  occ. eigenvalues --   -0.52595  -0.49850  -0.49511  -0.48450  -0.44406
  Beta  occ. eigenvalues --   -0.42159  -0.40645  -0.39807  -0.36347  -0.30743
  Beta  occ. eigenvalues --   -0.29786
  Beta virt. eigenvalues --   -0.06515  -0.06346   0.00934   0.01543   0.01928
  Beta virt. eigenvalues --    0.02416   0.02656   0.04019   0.04665   0.04848
  Beta virt. eigenvalues --    0.06951   0.07222   0.07884   0.08160   0.09682

 Mulliken atomic charges:
              1
     1  C   -0.723801
     2  C    0.581259
     3  C   -0.389676
     4  C   -0.040242
     5  C   -0.104118
     6  C   -0.200153
     7  C   -0.216712
     8  O   -0.331350
     9  H    0.174645
    10  H    0.173918
    11  H    0.151882
    12  H    0.145281
    13  H    0.145000
    14  H    0.146972
    15  H    0.178842
    16  O    0.005546
    17  O    0.049817
    18  H    0.252890
 Sum of Mulliken atomic charges =   0.00000

 Dipole moment (field-independent basis, Debye):
    X=              0.7775    Y=             -0.7754    Z=              1.2246  Tot=              1.6448
 Quadrupole moment (field-independent basis, Debye-Ang):
   XX=            -52.2779   YY=            -55.0789   ZZ=            -61.5037
   XY=             -0.1978   XZ=              2.5519   YZ=              1.9407

  Exact polarizability: 115.703   1.275  97.804   0.154   2.496  64.136
 Approx polarizability: 132.419   0.035 131.620   0.583   4.591  87.787

 ******    1 imaginary frequencies (negative Signs) ******

                     1                      2                      3
                     A                      A                      A
 Frequencies --  -157.9819                33.8991                46.2156
 Red. masses --     1.2339                 5.5152                 6.1071
 Frc consts  --     0.0181                 0.0037                 0.0077
 IR Inten    --   103.5050                 0.4338                 0.0465

                     4                      5                      6
                     A                      A                      A
 Frequencies --    66.1965                80.4680                85.3842
 Red. masses --     7.0434                 3.3309                10.8615
 Frc consts  --     0.0182                 0.0127                 0.0467
 IR Inten    --     3.6040                21.7943                 1.3178

                     7                      8                      9
                     A                      A                      A
 Frequencies --   106.3910               203.2646               247.3522
 Red. masses --    12.0930                 2.9311                 3.7631
 Frc consts  --     0.0806                 0.0714                 0.1357
 IR Inten    --     0.2222                 9.4115                 3.2857

                    10                     11                     12
                     A                      A                      A
 Frequencies --   418.0668               426.6826               474.0399
 Red. masses --     2.8795                 5.3232                 2.7284
 Frc consts  --     0.2965                 0.5710                 0.3612
 IR Inten    --     0.2033                 0.7319                10.6596

                    13                     14                     15
                     A                      A                      A
 Frequencies --   601.2533               632.1756               723.7687
 Red. masses --     5.3191                 6.3826                 2.3293
 Frc consts  --     1.1329                 1.5029                 0.7189
 IR Inten    --     5.8998                 0.0121                20.8337

                    16                     17                     18
                     A                      A                      A
 Frequencies --   755.1120               814.9752               884.0665
 Red. masses --     1.3340                 4.2976                 1.2483
 Frc consts  --     0.4482                 1.6818                 0.5748
 IR Inten    --    59.0426                 1.7864                 0.2686

                    19                     20                     21
                     A                      A                      A
 Frequencies --   935.7977              1015.3450              1017.6395
 Red. masses --     1.3063                 1.6002                 1.3791
 Frc consts  --     0.6740                 0.9720                 0.8415
 IR Inten    --     1.8384                15.0978                 0.0482

                    22                     23                     24
                     A                      A                      A
 Frequencies --  1023.4371              1038.1297              1064.9345
 Red. masses --     5.6060                 1.3411                 2.2291
 Frc consts  --     3.4596                 0.8515                 1.4894
 IR Inten    --     0.5163                 1.8627                 8.6927

                    25                     26                     27
                     A                      A                      A
 Frequencies --  1102.8633              1132.9485              1177.7801
 Red. masses --     2.2151                 2.5954                 1.1483
 Frc consts  --     1.5874                 1.9628                 0.9385
 IR Inten    --    41.7265                35.7460                 0.2788

                    28                     29                     30
                     A                      A                      A
 Frequencies --  1203.6138              1220.0204              1248.9802
 Red. masses --     1.1506                 1.4339                 1.7094
 Frc consts  --     0.9821                 1.2575                 1.5711
 IR Inten    --     7.9979                44.3324                 1.2581

                    31                     32                     33
                     A                      A                      A
 Frequencies --  1321.6342              1353.7273              1363.8986
 Red. masses --     2.1410                 1.8772                 1.1983
 Frc consts  --     2.2034                 2.0269                 1.3133
 IR Inten    --     2.1857                 3.0649                12.7563

                    34                     35                     36
                     A                      A                      A
 Frequencies --  1431.4021              1500.2238              1508.2766
 Red. masses --     1.4563                 2.1443                 1.1150
 Frc consts  --     1.7580                 2.8434                 1.4944
 IR Inten    --    16.0046                 9.4408                11.1953

                    37                     38                     39
                     A                      A                      A
 Frequencies --  1546.0092              1665.6722              1684.6683
 Red. masses --     2.3694                 6.0939                 5.9198
 Frc consts  --     3.3367                 9.9614                 9.8990
 IR Inten    --     8.0991                 0.7092                 5.1238

                    40                     41                     42
                     A                      A                      A
 Frequencies --  1766.0653              3038.4904              3077.8732
 Red. masses --    15.9817                 1.0595                 1.1038
 Frc consts  --    29.3688                 5.7632                 6.1611
 IR Inten    --     0.1654                29.1079                14.4167

                    43                     44                     45
                     A                      A                      A
 Frequencies --  3169.6905              3183.5415              3192.0291
 Red. masses --     1.0865                 1.0906                 1.0913
 Frc consts  --     6.4318                 6.5125                 6.5510
 IR Inten    --     3.3770                 5.4290                 9.5989

                    46                     47                     48
                     A                      A                      A
 Frequencies --  3202.4869              3212.4042              3955.8796
 Red. masses --     1.0935                 1.0966                 1.0673
 Frc consts  --     6.6075                 6.6676                 9.8407
 IR Inten    --     4.9266                 7.2692                74.1438

 - Thermochemistry -
 -------------------
 Temperature   298.150 Kelvin.  Pressure   1.00000 Atm.
 Atom     1 has atomic number  6 and mass  12.00000

 Molecular mass:   140.04734 amu.
 Principal axes and moments of inertia in atomic units:
                           1         2         3
     Eigenvalues --   482.691493502.482803907.35451
           X            0.99999   0.00330   0.00080
           Y           -0.00330   0.99998   0.00498
           Z           -0.00079  -0.00498   0.99999
 This molecule is an asymmetric top.
 Rotational symmetry number  1.
 Warning -- assumption of classical behavior for rotation
           may cause significant error
 Rotational temperatures (Kelvin)      0.17944     0.02473     0.02217
 Rotational constants (GHZ):           3.73891     0.51527     0.46188
    1 imaginary frequencies ignored.
 Zero-point vibrational energy     364590.5 (Joules/Mol)
                                   87.13922 (Kcal/Mol)
 Warning -- explicit consideration of  12 degrees of freedom as
           vibrations may cause significant error
 Vibrational temperatures:     48.77    66.49    95.24   115.78   122.85
          (Kelvin)            153.07   292.45   355.88   601.50   613.90
                              682.04   865.07   909.56  1041.34  1086.44
                             1172.57  1271.97  1346.40  1460.85  1464.15
                             1472.50  1493.64  1532.20  1586.77  1630.06
                             1694.56  1731.73  1755.34  1797.00  1901.53
                             1947.71  1962.34  2059.47  2158.48  2170.07
                             2224.36  2396.53  2423.86  2540.97  4371.70
                             4428.37  4560.47  4580.40  4592.61  4607.66
                             4621.93  5691.62

 Zero-point correction=                           0.138865 (Hartree/Particle)
 Thermal correction to Energy=                    0.149341
 Thermal correction to Enthalpy=                  0.150285
 Thermal correction to Gibbs Free Energy=         0.098982
 Sum of electronic and zero-point Energies=           -496.921172
 Sum of electronic and thermal Energies=              -496.910696
 Sum of electronic and thermal Enthalpies=            -496.909752
 Sum of electronic and thermal Free Energies=         -496.961055

                     E (Thermal)             CV                S
                      KCal/Mol        Cal/Mol-Kelvin    Cal/Mol-Kelvin
 Total                   93.713             34.457            107.976
 Electronic               0.000              0.000              2.183
 Translational            0.889              2.981             40.722
 Rotational               0.889              2.981             30.269
 Vibrational             91.935             28.495             34.801
 Vibration     1          0.594              1.983              5.587
 Vibration     2          0.595              1.979              4.973
 Vibration     3          0.598              1.970              4.263
 Vibration     4          0.600              1.962              3.879
 Vibration     5          0.601              1.959              3.763
 Vibration     6          0.605              1.944              3.334
 Vibration     7          0.639              1.835              2.103
 Vibration     8          0.661              1.767              1.749
 Vibration     9          0.781              1.431              0.899
 Vibration    10          0.788              1.412              0.870
 Vibration    11          0.831              1.308              0.726
 Vibration    12          0.959              1.029              0.448

 Normal termination of Gaussian 09 at Sat Sep 30 15:43:32 2017.
