 Gaussian 09, Revision B.01,
 Gaussian 09:  EM64L-G09RevB.01 12-Aug-2010

 ----------------------------------------------------------------------
 # m062x/6-311+g(2df,2p) irc=(calcall,report=read) geom=allcheck guess=
 check nosymm
 ----------------------------------------------------------------------

 [O]CC1C=CC=CC=1+[O]O_OO+[O][CH]C1C=CC=CC=1
 ------------------------------------------
 Redundant internal coordinates taken from checkpoint file:
 /gss_gpfs_scratch/harms.n/QMscratch/[O]CC1C=CC=CC=1+[O]O_OO+[O][CH]C1C=CC=CC=1.chk
 Charge =  0 Multiplicity = 3

 SCF Done:  E(UM062X) =  -497.059964349     A.U. after    9 cycles
 SCF Done:  E(UM062X) =  -497.059963855     A.U. after   11 cycles
 SCF Done:  E(UM062X) =  -497.059965933     A.U. after   11 cycles
 SCF Done:  E(UM062X) =  -497.059964061     A.U. after   11 cycles
 SCF Done:  E(UM062X) =  -497.059964960     A.U. after   10 cycles
 SCF Done:  E(UM062X) =  -497.059964742     A.U. after    9 cycles
 SCF Done:  E(UM062X) =  -497.059983825     A.U. after   12 cycles
 SCF Done:  E(UM062X) =  -497.060017324     A.U. after   11 cycles
 SCF Done:  E(UM062X) =  -497.060071339     A.U. after   11 cycles
 SCF Done:  E(UM062X) =  -497.060140810     A.U. after   12 cycles
 SCF Done:  E(UM062X) =  -497.060019124     A.U. after   11 cycles
 SCF Done:  E(UM062X) =  -497.060021422     A.U. after    9 cycles
 SCF Done:  E(UM062X) =  -497.060074790     A.U. after   11 cycles
 SCF Done:  E(UM062X) =  -497.060144914     A.U. after   12 cycles
 SCF Done:  E(UM062X) =  -497.060230192     A.U. after   11 cycles
 SCF Done:  E(UM062X) =  -497.060332937     A.U. after   11 cycles
 SCF Done:  E(UM062X) =  -497.060433131     A.U. after   11 cycles
 SCF Done:  E(UM062X) =  -497.060535969     A.U. after   11 cycles
 SCF Done:  E(UM062X) =  -497.060650686     A.U. after   11 cycles
 SCF Done:  E(UM062X) =  -497.060763794     A.U. after   12 cycles

                          Input orientation:
 ---------------------------------------------------------------------
 Center     Atomic      Atomic             Coordinates (Angstroms)
 Number     Number       Type             X           Y           Z
 ---------------------------------------------------------------------
      1          6           0       -0.823218    0.008832    0.102349
      2          6           0        0.681774   -0.066965   -0.019473
      3          6           0        1.338731   -1.212870    0.422500
      4          6           0        1.426435    0.977943   -0.546018
      5          6           0        2.717438   -1.312981    0.338260
      6          6           0        3.459181   -0.264771   -0.194189
      7          6           0        2.810469    0.877558   -0.635416
      8          8           0       -1.367180    1.260509   -0.251080
      9          1           0       -1.277360   -0.795470   -0.486361
     10          1           0       -1.104181   -0.166836    1.142851
     11          1           0        0.763168   -2.030090    0.842854
     12          1           0        3.215798   -2.206432    0.689817
     13          1           0        4.536075   -0.339757   -0.259769
     14          1           0        3.381565    1.699666   -1.045775
     15          1           0        0.921427    1.878379   -0.867031
     16          8           0       -4.001531   -0.174653   -0.226701
     17          8           0       -3.903119   -0.297873    0.951216
     18          1           0       -1.533739    1.281168   -1.196057
 ---------------------------------------------------------------------

 Alpha  occ. eigenvalues --  -19.78765 -19.78722 -19.63128 -10.59342 -10.54858
 Alpha  occ. eigenvalues --  -10.54288 -10.54156 -10.54147 -10.53942 -10.53802
 Alpha  occ. eigenvalues --   -1.46380  -1.15736  -0.96623  -0.96145  -0.86804
 Alpha  occ. eigenvalues --   -0.84478  -0.77516  -0.69200  -0.68142  -0.67887
 Alpha  occ. eigenvalues --   -0.67018  -0.64929  -0.60777  -0.58873  -0.53894
 Alpha  occ. eigenvalues --   -0.52957  -0.50312  -0.49504  -0.48694  -0.44842
 Alpha  occ. eigenvalues --   -0.42066  -0.41320  -0.40129  -0.39703  -0.39674
 Alpha  occ. eigenvalues --   -0.36223  -0.31042  -0.30080
 Alpha virt. eigenvalues --    0.00796   0.01307   0.01715   0.02319   0.02354
 Alpha virt. eigenvalues --    0.03880   0.04508   0.04850   0.06843   0.07297
 Alpha virt. eigenvalues --    0.07688   0.08059   0.09397   0.10160   0.10942

  Beta  occ. eigenvalues --  -19.76319 -19.76239 -19.63124 -10.59340 -10.54858
  Beta  occ. eigenvalues --  -10.54288 -10.54156 -10.54147 -10.53942 -10.53802
  Beta  occ. eigenvalues --   -1.39266  -1.15727  -0.96621  -0.86802  -0.85430
  Beta  occ. eigenvalues --   -0.84478  -0.77500  -0.69186  -0.67162  -0.60777
  Beta  occ. eigenvalues --   -0.59792  -0.58917  -0.54985  -0.54480  -0.53564
  Beta  occ. eigenvalues --   -0.52841  -0.50280  -0.49405  -0.48660  -0.44836
  Beta  occ. eigenvalues --   -0.42003  -0.41297  -0.40126  -0.36277  -0.31041
  Beta  occ. eigenvalues --   -0.30092
  Beta virt. eigenvalues --   -0.05428  -0.05233   0.00793   0.01331   0.01734
  Beta virt. eigenvalues --    0.02314   0.02370   0.03889   0.04521   0.04850
  Beta virt. eigenvalues --    0.06886   0.07302   0.07704   0.08082   0.09399

 Mulliken atomic charges:
              1
     1  C   -0.656518
     2  C    0.468235
     3  C   -0.304826
     4  C   -0.058673
     5  C   -0.104744
     6  C   -0.183471
     7  C   -0.277038
     8  O   -0.280099
     9  H    0.177602
    10  H    0.180711
    11  H    0.153897
    12  H    0.146245
    13  H    0.145454
    14  H    0.147186
    15  H    0.161736
    16  O    0.020685
    17  O    0.031737
    18  H    0.231879
 Sum of Mulliken atomic charges =   0.00000

 Dipole moment (field-independent basis, Debye):
    X=              0.0344    Y=             -1.0262    Z=             -1.0130  Tot=              1.4424
 Quadrupole moment (field-independent basis, Debye-Ang):
   XX=            -55.2949   YY=            -57.2622   ZZ=            -58.0482
   XY=              1.2396   XZ=              1.5712   YZ=             -4.4750

  Exact polarizability: 113.971  -2.975  90.263  -2.683 -14.395  72.584
 Approx polarizability: 130.968  -1.683 120.527  -2.731 -19.572  99.895

 Normal termination of Gaussian 09 at Mon Oct  2 03:24:50 2017.
