 Gaussian 09, Revision B.01,
 Gaussian 09:  EM64L-G09RevB.01 12-Aug-2010

 --------------------------------------------------------
 # m062x/6-311+g(2df,2p) opt=(ts,calcfc,noeigentest) freq
 --------------------------------------------------------

 -------------------
 [O]O+[O]O_OO+[O][O]
 -------------------
 Symbolic Z-matrix:
 Charge =  0 Multiplicity = 3

 SCF Done:  E(UM062X) =  -301.805834478     A.U. after   25 cycles
 Optimization completed.
    -- Stationary point found.
 Normal termination of Gaussian 09 at Thu May 11 17:35:47 2017.

 ----------------------------------------------------------------------
 #N Geom=AllCheck Guess=TCheck SCRF=Check GenChk UM062X/6-311+G(2df,2p)
  Freq
 ----------------------------------------------------------------------

 [O]O+[O]O_OO+[O][O]
 -------------------
 Redundant internal coordinates taken from checkpoint file:
 /gss_gpfs_scratch/harms.n/QMscratch/[O]O+[O]O_OO+[O][O].chk
 Charge =  0 Multiplicity = 3

                         Standard orientation:
 ---------------------------------------------------------------------
 Center     Atomic      Atomic             Coordinates (Angstroms)
 Number     Number       Type             X           Y           Z
 ---------------------------------------------------------------------
      1          8           0       -1.247642   -0.586872   -0.090795
      2          8           0       -1.313438    0.667233    0.075860
      3          1           0       -0.209824   -0.839089   -0.032293
      4          8           0        1.313389    0.582417   -0.181642
      5          8           0        1.138594   -0.693114    0.123115
      6          1           0        1.082602    1.081775    0.619984
 ---------------------------------------------------------------------

 SCF Done:  E(UM062X) =  -301.805834478     A.U. after    1 cycles

 The electronic state is 3-A.
 Alpha  occ. eigenvalues --  -19.77111 -19.77079 -19.74082 -19.73017  -1.39313
 Alpha  occ. eigenvalues --   -1.35780  -1.03113  -0.98175  -0.72053  -0.66891
 Alpha  occ. eigenvalues --   -0.63243  -0.61240  -0.59360  -0.58951  -0.45044
 Alpha  occ. eigenvalues --   -0.41664  -0.39618  -0.37380
 Alpha virt. eigenvalues --    0.03224   0.06442   0.10914   0.11807   0.13215
 Alpha virt. eigenvalues --    0.15985   0.16324   0.17107   0.19342   0.20545
 Alpha virt. eigenvalues --    0.22187   0.23844   0.24817   0.25227   0.26101

  Beta  occ. eigenvalues --  -19.76326 -19.75749 -19.72254 -19.71967  -1.35028
  Beta  occ. eigenvalues --   -1.32618  -0.99185  -0.91979  -0.68640  -0.63779
  Beta  occ. eigenvalues --   -0.57565  -0.57141  -0.51930  -0.50478  -0.39552
  Beta  occ. eigenvalues --   -0.34957
  Beta virt. eigenvalues --   -0.12881  -0.07478   0.03934   0.07007   0.11569
  Beta virt. eigenvalues --    0.12159   0.13699   0.16506   0.16747   0.17652
  Beta virt. eigenvalues --    0.20011   0.21706   0.22557   0.24144   0.25115

 Mulliken atomic charges:
              1
     1  O   -0.152371
     2  O   -0.155163
     3  H    0.398742
     4  O   -0.041218
     5  O   -0.315566
     6  H    0.265575
 Sum of Mulliken atomic charges =   0.00000

 Dipole moment (field-independent basis, Debye):
    X=              0.8353    Y=              0.7547    Z=              1.1461  Tot=              1.6066
 Quadrupole moment (field-independent basis, Debye-Ang):
   XX=            -25.6654   YY=            -21.0658   ZZ=            -21.8520
   XY=              2.5466   XZ=              1.4755   YZ=              1.6381

  Exact polarizability:  59.655  -2.648  29.815   0.474   0.758  16.791
 Approx polarizability:  52.306  -4.193  39.962  -0.483   0.720  19.359

 ******    1 imaginary frequencies (negative Signs) ******

                     1                      2                      3
                     A                      A                      A
 Frequencies -- -1131.7760               131.3414               186.2319
 Red. masses --     1.5588                 6.1751                 3.4145
 Frc consts  --     1.1764                 0.0628                 0.0698
 IR Inten    --  2005.6888                18.7317                34.1841

                     4                      5                      6
                     A                      A                      A
 Frequencies --   277.0560               370.2395               838.6196
 Red. masses --     1.7854                 5.5515                 8.9779
 Frc consts  --     0.0807                 0.4484                 3.7201
 IR Inten    --    97.6999                13.4787               554.0176

                     7                      8                      9
                     A                      A                      A
 Frequencies --   869.1255              1316.9010              1465.8356
 Red. masses --     1.0552                 8.1037                 1.1844
 Frc consts  --     0.4696                 8.2801                 1.4995
 IR Inten    --    95.7062                30.8740                71.3689

                    10                     11                     12
                     A                      A                      A
 Frequencies --  1520.9563              1760.1545              3711.8741
 Red. masses --     2.1204                 1.1633                 1.0678
 Frc consts  --     2.8900                 2.1234                 8.6678
 IR Inten    --    26.9515               139.7123                82.1477

 - Thermochemistry -
 -------------------
 Temperature   298.150 Kelvin.  Pressure   1.00000 Atm.
 Atom     1 has atomic number  8 and mass  15.99491

 Molecular mass:    65.99531 amu.
 Principal axes and moments of inertia in atomic units:
                           1         2         3
     Eigenvalues --   103.47709 369.29989 463.10687
           X            0.99982   0.01774   0.00711
           Y           -0.01792   0.99948   0.02677
           Z           -0.00663  -0.02689   0.99962
 This molecule is an asymmetric top.
 Rotational symmetry number  1.
 Rotational temperatures (Kelvin)      0.83703     0.23454     0.18703
 Rotational constants (GHZ):          17.44097     4.88693     3.89703
    1 imaginary frequencies ignored.
 Zero-point vibrational energy      74457.6 (Joules/Mol)
                                   17.79579 (Kcal/Mol)
 Warning -- explicit consideration of   4 degrees of freedom as
           vibrations may cause significant error
 Vibrational temperatures:    188.97   267.95   398.62   532.69  1206.59
          (Kelvin)           1250.48  1894.72  2109.01  2188.31  2532.47
                             5340.55

 Zero-point correction=                           0.028359 (Hartree/Particle)
 Thermal correction to Energy=                    0.033391
 Thermal correction to Enthalpy=                  0.034335
 Thermal correction to Gibbs Free Energy=        -0.000473
 Sum of electronic and zero-point Energies=           -301.777475
 Sum of electronic and thermal Energies=              -301.772444
 Sum of electronic and thermal Enthalpies=            -301.771499
 Sum of electronic and thermal Free Energies=         -301.806307

                     E (Thermal)             CV                S
                      KCal/Mol        Cal/Mol-Kelvin    Cal/Mol-Kelvin
 Total                   20.953             14.448             73.259
 Electronic               0.000              0.000              2.183
 Translational            0.889              2.981             38.479
 Rotational               0.889              2.981             24.385
 Vibrational             19.176              8.486              8.212
 Vibration     1          0.612              1.922              2.926
 Vibration     2          0.632              1.859              2.265
 Vibration     3          0.678              1.716              1.552
 Vibration     4          0.742              1.533              1.079

 Optimization completed.
    -- Stationary point found.
 Normal termination of Gaussian 09 at Thu May 11 17:38:30 2017.
