 Gaussian 09, Revision B.01,
 Gaussian 09:  EM64L-G09RevB.01 12-Aug-2010

 ----------------------------------------------------------
 # m062x/6-311+g(2df,2p) Opt=(ModRedun,Loose) Int(Grid=SG1)
 ----------------------------------------------------------

 ------------------------------
 [O]O+[O]OCCCCO_OO+[O]OC[CH]CCO
 ------------------------------
 Symbolic Z-matrix:
 Charge =  0 Multiplicity = 3

 SCF Done:  E(UM062X) =  -534.133378549     A.U. after   26 cycles
 SCF Done:  E(UM062X) =  -534.157457552     A.U. after   22 cycles
 SCF Done:  E(UM062X) =  -534.180746112     A.U. after   21 cycles
 SCF Done:  E(UM062X) =  -534.197537798     A.U. after   21 cycles
 SCF Done:  E(UM062X) =  -534.203084951     A.U. after   18 cycles
 SCF Done:  E(UM062X) =  -534.205356859     A.U. after   22 cycles
 SCF Done:  E(UM062X) =  -534.206381783     A.U. after   22 cycles
 SCF Done:  E(UM062X) =  -534.207368937     A.U. after   19 cycles
 SCF Done:  E(UM062X) =  -534.198063518     A.U. after   22 cycles
 SCF Done:  E(UM062X) =  -534.207454498     A.U. after   22 cycles
 SCF Done:  E(UM062X) =  -534.209867976     A.U. after   17 cycles
 SCF Done:  E(UM062X) =  -534.209900655     A.U. after   16 cycles
 SCF Done:  E(UM062X) =  -534.209896773     A.U. after   16 cycles
 SCF Done:  E(UM062X) =  -534.209915324     A.U. after   16 cycles
 SCF Done:  E(UM062X) =  -534.209936338     A.U. after   17 cycles
 SCF Done:  E(UM062X) =  -534.209940826     A.U. after   16 cycles
 SCF Done:  E(UM062X) =  -534.209940854     A.U. after   17 cycles
 SCF Done:  E(UM062X) =  -534.209946008     A.U. after   16 cycles
 SCF Done:  E(UM062X) =  -534.209946512     A.U. after   16 cycles
 SCF Done:  E(UM062X) =  -534.209950115     A.U. after   15 cycles
 Optimization completed.
    -- Stationary point found.

                         Standard orientation:
 ---------------------------------------------------------------------
 Center     Atomic      Atomic             Coordinates (Angstroms)
 Number     Number       Type             X           Y           Z
 ---------------------------------------------------------------------
      1          6           0        0.171768   -0.818982    0.610002
      2          6           0       -0.103698    0.647808    0.818016
      3          6           0        1.183779   -1.243581   -0.415172
      4          6           0       -0.398103    1.426858   -0.459525
      5          8           0        2.540105   -0.934863    0.010717
      6          8           0       -0.732086    2.769940   -0.175394
      7          1           0       -0.953944   -1.297410    0.085967
      8          1           0        0.249883   -1.388908    1.533865
      9          1           0       -0.953981    0.764634    1.492182
     10          1           0        0.760222    1.100546    1.321144
     11          1           0        1.194224   -2.325083   -0.536279
     12          1           0        1.036474   -0.765294   -1.380846
     13          1           0       -1.263463    0.996647   -0.963437
     14          1           0        0.457109    1.378016   -1.138111
     15          8           0        2.785331    0.334532   -0.048606
     16          1           0        0.052845    3.223812    0.138363
     17          8           0       -2.890036   -0.651025    0.033189
     18          8           0       -2.002892   -1.606452   -0.404688
     19          1           0       -3.305225   -1.056635    0.805482
 ---------------------------------------------------------------------

 The electronic state is 3-A.
 Alpha  occ. eigenvalues --  -19.75987 -19.71405 -19.71061 -19.70570 -19.62269
 Alpha  occ. eigenvalues --  -10.61931 -10.58361 -10.58033 -10.54997  -1.35529
 Alpha  occ. eigenvalues --   -1.29940  -1.14797  -1.01765  -1.00846  -0.91686
 Alpha  occ. eigenvalues --   -0.82184  -0.75412  -0.69403  -0.65200  -0.63297
 Alpha  occ. eigenvalues --   -0.61901  -0.60532  -0.59967  -0.58760  -0.54984
 Alpha  occ. eigenvalues --   -0.54031  -0.51963  -0.51015  -0.47819  -0.45126
 Alpha  occ. eigenvalues --   -0.44672  -0.42678  -0.40203  -0.39786  -0.38319
 Alpha  occ. eigenvalues --   -0.37426  -0.35164  -0.31363
 Alpha virt. eigenvalues --    0.00616   0.01679   0.02044   0.03093   0.04686
 Alpha virt. eigenvalues --    0.05064   0.05459   0.06552   0.07870   0.09486
 Alpha virt. eigenvalues --    0.09742   0.10216   0.10743   0.11527   0.12531

  Beta  occ. eigenvalues --  -19.75041 -19.71171 -19.70072 -19.69177 -19.62269
  Beta  occ. eigenvalues --  -10.61982 -10.58355 -10.57569 -10.55012  -1.32041
  Beta  occ. eigenvalues --   -1.28069  -1.14795  -0.98732  -0.97521  -0.90044
  Beta  occ. eigenvalues --   -0.80923  -0.74570  -0.67915  -0.63364  -0.60657
  Beta  occ. eigenvalues --   -0.60204  -0.58714  -0.57384  -0.54529  -0.52909
  Beta  occ. eigenvalues --   -0.52360  -0.50833  -0.48874  -0.45858  -0.44301
  Beta  occ. eigenvalues --   -0.42675  -0.40252  -0.38660  -0.37772  -0.35303
  Beta  occ. eigenvalues --   -0.34624
  Beta virt. eigenvalues --   -0.11066  -0.06494   0.00689   0.01791   0.02011
  Beta virt. eigenvalues --    0.03177   0.04995   0.05093   0.05587   0.06614
  Beta virt. eigenvalues --    0.07945   0.09572   0.10065   0.10276   0.10911

 Mulliken atomic charges:
              1
     1  C   -0.494804
     2  C   -0.387368
     3  C   -0.280910
     4  C   -0.164008
     5  O    0.026933
     6  O   -0.374067
     7  H    0.424994
     8  H    0.201924
     9  H    0.218837
    10  H    0.201580
    11  H    0.178994
    12  H    0.205468
    13  H    0.192371
    14  H    0.160925
    15  O   -0.160371
    16  H    0.250078
    17  O   -0.155510
    18  O   -0.297434
    19  H    0.252369
 Sum of Mulliken atomic charges =   0.00000

 Dipole moment (field-independent basis, Debye):
    X=             -0.4924    Y=             -1.9142    Z=              1.8018  Tot=              2.6745
 Quadrupole moment (field-independent basis, Debye-Ang):
   XX=            -61.9634   YY=            -55.1766   ZZ=            -51.9448
   XY=              4.5060   XZ=             -6.7640   YZ=             -0.1929

 Normal termination of Gaussian 09 at Sat Aug 12 00:57:43 2017.
