 Gaussian 09, Revision B.01,
 Gaussian 09:  EM64L-G09RevB.01 12-Aug-2010

 ---------------------------------------------------
 # m062x/6-311+g(2df,2p) opt=(ts,calcfc,noeigentest)
 ---------------------------------------------------

 -------------------------
 [O]O+[O]OC=O_OO+[O]O[C]=O
 -------------------------
 Symbolic Z-matrix:
 Charge =  0 Multiplicity = 3

 SCF Done:  E(UM062X) =  -415.087540890     A.U. after   22 cycles

  Exact polarizability:   0.000   0.000   0.000   0.000   0.000   0.000
 Approx polarizability:  86.635  -8.820  50.685  -3.402  -1.120  32.941

 SCF Done:  E(UM062X) =  -415.087903178     A.U. after   20 cycles
 SCF Done:  E(UM062X) =  -415.087912577     A.U. after   18 cycles
 SCF Done:  E(UM062X) =  -415.087850415     A.U. after   19 cycles
 SCF Done:  E(UM062X) =  -415.087906780     A.U. after   19 cycles
 SCF Done:  E(UM062X) =  -415.087911659     A.U. after   18 cycles
 SCF Done:  E(UM062X) =  -415.087913139     A.U. after   17 cycles
 SCF Done:  E(UM062X) =  -415.087912928     A.U. after   14 cycles
 SCF Done:  E(UM062X) =  -415.087912458     A.U. after   16 cycles
 Optimization completed.
    -- Stationary point found.

                         Standard orientation:
 ---------------------------------------------------------------------
 Center     Atomic      Atomic             Coordinates (Angstroms)
 Number     Number       Type             X           Y           Z
 ---------------------------------------------------------------------
      1          6           0       -0.527131    0.619699   -0.028763
      2          8           0       -0.835064   -0.752860   -0.181214
      3          8           0       -1.272684    1.474492    0.222639
      4          1           0        0.833119    0.659564   -0.244819
      5          8           0       -2.102008   -1.018339    0.004886
      6          8           0        2.274925   -0.540483    0.449889
      7          8           0        1.945036    0.457680   -0.432800
      8          1           0        2.248030   -1.341671   -0.089799
 ---------------------------------------------------------------------

 The electronic state is 3-A.
 Alpha  occ. eigenvalues --  -19.80514 -19.76024 -19.72872 -19.72794 -19.71437
 Alpha  occ. eigenvalues --  -10.72710  -1.40221  -1.31795  -1.27401  -1.05989
 Alpha  occ. eigenvalues --   -1.02728  -0.75523  -0.69562  -0.66312  -0.64612
 Alpha  occ. eigenvalues --   -0.64487  -0.61568  -0.56517  -0.54652  -0.54170
 Alpha  occ. eigenvalues --   -0.45449  -0.43082  -0.42507  -0.41440  -0.35654
 Alpha virt. eigenvalues --   -0.01390   0.01694   0.02776   0.04799   0.05403
 Alpha virt. eigenvalues --    0.08061   0.10425   0.11841   0.15123   0.16268
 Alpha virt. eigenvalues --    0.17035   0.17821   0.19067   0.20230   0.20714

  Beta  occ. eigenvalues --  -19.79779 -19.74420 -19.72553 -19.71988 -19.70995
  Beta  occ. eigenvalues --  -10.72162  -1.36745  -1.30006  -1.25756  -1.01051
  Beta  occ. eigenvalues --   -0.99634  -0.72144  -0.66821  -0.62924  -0.62539
  Beta  occ. eigenvalues --   -0.59628  -0.58399  -0.54142  -0.50527  -0.50084
  Beta  occ. eigenvalues --   -0.41337  -0.40255  -0.37178
  Beta virt. eigenvalues --   -0.14519  -0.12258   0.00848   0.01665   0.03001
  Beta virt. eigenvalues --    0.05091   0.05654   0.08189   0.11126   0.12235
  Beta virt. eigenvalues --    0.15219   0.16187   0.17284   0.18221   0.19577

 Mulliken atomic charges:
              1
     1  C    0.131267
     2  O   -0.010002
     3  O   -0.227714
     4  H    0.342842
     5  O   -0.065725
     6  O   -0.158185
     7  O   -0.271844
     8  H    0.259361
 Sum of Mulliken atomic charges =   0.00000

 Dipole moment (field-independent basis, Debye):
    X=              0.6829    Y=             -1.5523    Z=             -0.7833  Tot=              1.8680
 Quadrupole moment (field-independent basis, Debye-Ang):
   XX=            -38.2044   YY=            -33.1455   ZZ=            -33.0999
   XY=             -3.4842   XZ=             -0.7354   YZ=              0.1190

 Normal termination of Gaussian 09 at Thu Aug  3 16:39:28 2017.
