 Gaussian 09, Revision B.01,
 Gaussian 09:  EM64L-G09RevB.01 12-Aug-2010

 ----------------------------------------------------------
 # m062x/6-311+g(2df,2p) Opt=(ModRedun,Loose) Int(Grid=SG1)
 ----------------------------------------------------------

 ------------------------
 [O]O+[O]OCO_OO+[O]O[CH]O
 ------------------------
 Symbolic Z-matrix:
 Charge =  0 Multiplicity = 3

 SCF Done:  E(UM062X) =  -416.255703203     A.U. after   23 cycles
 SCF Done:  E(UM062X) =  -416.275608646     A.U. after   21 cycles
 SCF Done:  E(UM062X) =  -416.286573222     A.U. after   21 cycles
 SCF Done:  E(UM062X) =  -416.291966705     A.U. after   23 cycles
 SCF Done:  E(UM062X) =  -416.293752264     A.U. after   20 cycles
 SCF Done:  E(UM062X) =  -416.293293124     A.U. after   22 cycles
 SCF Done:  E(UM062X) =  -416.294484523     A.U. after   22 cycles
 SCF Done:  E(UM062X) =  -416.295284702     A.U. after   18 cycles
 SCF Done:  E(UM062X) =  -416.297400177     A.U. after   19 cycles
 SCF Done:  E(UM062X) =  -416.298828402     A.U. after   20 cycles
 SCF Done:  E(UM062X) =  -416.299669996     A.U. after   19 cycles
 SCF Done:  E(UM062X) =  -416.301111579     A.U. after   22 cycles
 SCF Done:  E(UM062X) =  -416.301708928     A.U. after   20 cycles
 SCF Done:  E(UM062X) =  -416.301446645     A.U. after   22 cycles
 SCF Done:  E(UM062X) =  -416.301947901     A.U. after   22 cycles
 SCF Done:  E(UM062X) =  -416.302234435     A.U. after   19 cycles
 SCF Done:  E(UM062X) =  -416.302314852     A.U. after   18 cycles
 SCF Done:  E(UM062X) =  -416.302330068     A.U. after   18 cycles
 SCF Done:  E(UM062X) =  -416.302338048     A.U. after   17 cycles
 Optimization completed.
    -- Stationary point found.

                         Standard orientation:
 ---------------------------------------------------------------------
 Center     Atomic      Atomic             Coordinates (Angstroms)
 Number     Number       Type             X           Y           Z
 ---------------------------------------------------------------------
      1          6           0        0.822017   -0.637790    0.513512
      2          8           0        1.425350    0.667885    0.382158
      3          8           0        0.905229   -1.363066   -0.621879
      4          1           0       -0.432252   -0.385171    0.756723
      5          1           0        1.318881   -1.126084    1.346578
      6          8           0        0.725336    1.412353   -0.420121
      7          1           0        0.308549   -0.992240   -1.285904
      8          8           0       -1.950733    0.055194   -0.528644
      9          8           0       -1.656646   -0.103314    0.789785
     10          1           0       -1.715572    0.977817   -0.708867
 ---------------------------------------------------------------------

 The electronic state is 3-A.
 Alpha  occ. eigenvalues --  -19.77122 -19.73051 -19.72653 -19.72306 -19.68321
 Alpha  occ. eigenvalues --  -10.67987  -1.37288  -1.31976  -1.22079  -1.02237
 Alpha  occ. eigenvalues --   -1.01105  -0.79635  -0.69514  -0.66056  -0.64255
 Alpha  occ. eigenvalues --   -0.63793  -0.60789  -0.56791  -0.55545  -0.54247
 Alpha  occ. eigenvalues --   -0.47207  -0.44481  -0.40714  -0.40305  -0.39419
 Alpha  occ. eigenvalues --   -0.33414
 Alpha virt. eigenvalues --    0.01353   0.02040   0.04287   0.04729   0.06918
 Alpha virt. eigenvalues --    0.10189   0.11838   0.14016   0.15729   0.16509
 Alpha virt. eigenvalues --    0.18034   0.18536   0.18764   0.20036   0.20408

  Beta  occ. eigenvalues --  -19.76255 -19.72699 -19.71243 -19.71163 -19.68134
  Beta  occ. eigenvalues --  -10.67574  -1.33924  -1.29699  -1.21168  -0.98458
  Beta  occ. eigenvalues --   -0.97149  -0.77362  -0.67219  -0.63983  -0.61251
  Beta  occ. eigenvalues --   -0.60974  -0.55372  -0.53821  -0.51128  -0.50591
  Beta  occ. eigenvalues --   -0.45111  -0.39553  -0.38547  -0.36040
  Beta virt. eigenvalues --   -0.12276  -0.07774   0.01592   0.02155   0.04476
  Beta virt. eigenvalues --    0.04955   0.07346   0.10682   0.12354   0.14411
  Beta virt. eigenvalues --    0.16126   0.16808   0.18576   0.19044   0.19547

 Mulliken atomic charges:
              1
     1  C   -0.143220
     2  O    0.025944
     3  O   -0.320741
     4  H    0.320273
     5  H    0.179527
     6  O   -0.210797
     7  H    0.291381
     8  O   -0.159423
     9  O   -0.252483
    10  H    0.269537
 Sum of Mulliken atomic charges =   0.00000

 Dipole moment (field-independent basis, Debye):
    X=              0.1197    Y=              0.0226    Z=             -0.2838  Tot=              0.3089
 Quadrupole moment (field-independent basis, Debye-Ang):
   XX=            -38.7652   YY=            -36.8004   ZZ=            -31.5910
   XY=             -4.0483   XZ=              3.6397   YZ=             -2.0240

 Normal termination of Gaussian 09 at Thu Aug  3 22:27:27 2017.
