 Gaussian 09, Revision B.01,
 Gaussian 09:  EM64L-G09RevB.01 12-Aug-2010

 ----------------------------------------------------------------------
 # m062x/6-311+g(2df,2p) irc=(calcall,report=read) geom=allcheck guess=
 check nosymm
 ----------------------------------------------------------------------

 [O]O+[O]OCCCCO_OO+[O]OC[CH]CCO
 ------------------------------
 Redundant internal coordinates taken from checkpoint file:
 /gss_gpfs_scratch/harms.n/QMscratch/[O]O+[O]OCCCCO_OO+[O]OC[CH]CCO.chk
 Charge =  0 Multiplicity = 3

 SCF Done:  E(UM062X) =  -534.210069162     A.U. after    1 cycles
 SCF Done:  E(UM062X) =  -534.210787087     A.U. after   18 cycles
 SCF Done:  E(UM062X) =  -534.212507344     A.U. after   17 cycles
 SCF Done:  E(UM062X) =  -534.214178422     A.U. after   17 cycles
 SCF Done:  E(UM062X) =  -534.215363199     A.U. after   17 cycles
 SCF Done:  E(UM062X) =  -534.216333145     A.U. after   17 cycles
 SCF Done:  E(UM062X) =  -534.217194520     A.U. after   16 cycles
 SCF Done:  E(UM062X) =  -534.217972613     A.U. after   16 cycles
 SCF Done:  E(UM062X) =  -534.218684214     A.U. after   15 cycles
 SCF Done:  E(UM062X) =  -534.219339851     A.U. after   15 cycles
 SCF Done:  E(UM062X) =  -534.210828700     A.U. after   20 cycles
 SCF Done:  E(UM062X) =  -534.212921816     A.U. after   19 cycles
 SCF Done:  E(UM062X) =  -534.215727701     A.U. after   20 cycles
 SCF Done:  E(UM062X) =  -534.218279957     A.U. after   20 cycles
 SCF Done:  E(UM062X) =  -534.220081091     A.U. after   20 cycles
 SCF Done:  E(UM062X) =  -534.221529862     A.U. after   19 cycles
 SCF Done:  E(UM062X) =  -534.222848758     A.U. after   19 cycles
 SCF Done:  E(UM062X) =  -534.224078916     A.U. after   19 cycles
 SCF Done:  E(UM062X) =  -534.225244151     A.U. after   16 cycles
 SCF Done:  E(UM062X) =  -534.226360174     A.U. after   15 cycles

                          Input orientation:
 ---------------------------------------------------------------------
 Center     Atomic      Atomic             Coordinates (Angstroms)
 Number     Number       Type             X           Y           Z
 ---------------------------------------------------------------------
      1          6           0        0.168468   -0.810709    0.640148
      2          6           0       -0.124349    0.666215    0.838598
      3          6           0        1.175693   -1.224021   -0.400076
      4          6           0       -0.389429    1.438476   -0.445678
      5          8           0        2.521096   -0.921437    0.013314
      6          8           0       -0.792914    2.767228   -0.171245
      7          1           0       -0.729031   -1.287663    0.287851
      8          1           0        0.388829   -1.304709    1.588142
      9          1           0       -1.008315    0.762111    1.474922
     10          1           0        0.700957    1.144069    1.373264
     11          1           0        1.175503   -2.305649   -0.526068
     12          1           0        1.009722   -0.747071   -1.365186
     13          1           0       -1.208032    0.980971   -1.003102
     14          1           0        0.499824    1.432776   -1.081626
     15          8           0        2.759577    0.350624   -0.042741
     16          1           0       -0.044413    3.245094    0.191255
     17          8           0       -2.884001   -0.674361    0.004021
     18          8           0       -2.066802   -1.631574   -0.387831
     19          1           0       -3.323419   -1.014766    0.799751
 ---------------------------------------------------------------------

 Alpha  occ. eigenvalues --  -19.76377 -19.74628 -19.73529 -19.69284 -19.61726
 Alpha  occ. eigenvalues --  -10.60408 -10.57621 -10.54199 -10.53612  -1.36150
 Alpha  occ. eigenvalues --   -1.34300  -1.14195  -1.01920  -1.00467  -0.90509
 Alpha  occ. eigenvalues --   -0.81160  -0.74456  -0.69050  -0.67638  -0.64063
 Alpha  occ. eigenvalues --   -0.61469  -0.60520  -0.59465  -0.58771  -0.57825
 Alpha  occ. eigenvalues --   -0.53220  -0.50718  -0.49655  -0.48113  -0.45024
 Alpha  occ. eigenvalues --   -0.43617  -0.42455  -0.41540  -0.39634  -0.38218
 Alpha  occ. eigenvalues --   -0.36416  -0.34568  -0.34331
 Alpha virt. eigenvalues --    0.00399   0.01911   0.02421   0.02956   0.04988
 Alpha virt. eigenvalues --    0.05448   0.05792   0.06473   0.07740   0.09765
 Alpha virt. eigenvalues --    0.09903   0.10561   0.11182   0.11667   0.12397

  Beta  occ. eigenvalues --  -19.75741 -19.73745 -19.72064 -19.67912 -19.61727
  Beta  occ. eigenvalues --  -10.60437 -10.57621 -10.54063 -10.53609  -1.33050
  Beta  occ. eigenvalues --   -1.31020  -1.14195  -0.97699  -0.96820  -0.89502
  Beta  occ. eigenvalues --   -0.80326  -0.73754  -0.67911  -0.66024  -0.60050
  Beta  occ. eigenvalues --   -0.59536  -0.58001  -0.57387  -0.55407  -0.52656
  Beta  occ. eigenvalues --   -0.51912  -0.49632  -0.48561  -0.45239  -0.43683
  Beta  occ. eigenvalues --   -0.41324  -0.41024  -0.38924  -0.38525  -0.34594
  Beta  occ. eigenvalues --   -0.33744
  Beta virt. eigenvalues --   -0.09657  -0.05724   0.00584   0.02052   0.02433
  Beta virt. eigenvalues --    0.03099   0.05202   0.05505   0.05939   0.06578
  Beta virt. eigenvalues --    0.07867   0.09846   0.10177   0.10650   0.11350

 Mulliken atomic charges:
              1
     1  C   -0.618326
     2  C   -0.338942
     3  C   -0.268359
     4  C   -0.195489
     5  O    0.026776
     6  O   -0.379433
     7  H    0.374696
     8  H    0.194223
     9  H    0.203713
    10  H    0.200699
    11  H    0.168137
    12  H    0.196158
    13  H    0.183116
    14  H    0.169216
    15  O   -0.172244
    16  H    0.250616
    17  O   -0.055011
    18  O   -0.196678
    19  H    0.257130
 Sum of Mulliken atomic charges =   0.00000

 Dipole moment (field-independent basis, Debye):
    X=             -2.3716    Y=             -2.2057    Z=              1.5756  Tot=              3.6017
 Quadrupole moment (field-independent basis, Debye-Ang):
   XX=            -57.5867   YY=            -55.2079   ZZ=            -52.2006
   XY=              6.1659   XZ=             -6.5354   YZ=              0.5830

  Exact polarizability:  88.733   2.654  80.586   0.080   2.181  63.373
 Approx polarizability:  93.959   1.888  93.420   0.450   3.558  78.523

 Normal termination of Gaussian 09 at Sun Aug 13 03:58:54 2017.
