 Gaussian 09, Revision B.01,
 Gaussian 09:  EM64L-G09RevB.01 12-Aug-2010

 ----------------------------------------------------------------------
 # m062x/6-311+g(2df,2p) irc=(calcall,report=read) geom=allcheck guess=
 check nosymm
 ----------------------------------------------------------------------

 [O]O+[O]OCO_OO+[O]O[CH]O
 ------------------------
 Redundant internal coordinates taken from checkpoint file:
 /gss_gpfs_scratch/harms.n/QMscratch/[O]O+[O]OCO_OO+[O]O[CH]O.chk
 Charge =  0 Multiplicity = 3

 SCF Done:  E(UM062X) =  -416.302526815     A.U. after    1 cycles
 SCF Done:  E(UM062X) =  -416.303352418     A.U. after   18 cycles
 SCF Done:  E(UM062X) =  -416.305777777     A.U. after   18 cycles
 SCF Done:  E(UM062X) =  -416.309212009     A.U. after   18 cycles
 SCF Done:  E(UM062X) =  -416.312693656     A.U. after   17 cycles
 SCF Done:  E(UM062X) =  -416.315471862     A.U. after   20 cycles
 SCF Done:  E(UM062X) =  -416.317598352     A.U. after   20 cycles
 SCF Done:  E(UM062X) =  -416.319442203     A.U. after   20 cycles
 SCF Done:  E(UM062X) =  -416.321129660     A.U. after   16 cycles
 SCF Done:  E(UM062X) =  -416.322688762     A.U. after   15 cycles
 SCF Done:  E(UM062X) =  -416.303223515     A.U. after   20 cycles
 SCF Done:  E(UM062X) =  -416.304765834     A.U. after   18 cycles
 SCF Done:  E(UM062X) =  -416.306101674     A.U. after   17 cycles
 SCF Done:  E(UM062X) =  -416.307058641     A.U. after   16 cycles
 SCF Done:  E(UM062X) =  -416.307866698     A.U. after   16 cycles
 SCF Done:  E(UM062X) =  -416.308602184     A.U. after   16 cycles
 SCF Done:  E(UM062X) =  -416.309285923     A.U. after   16 cycles
 SCF Done:  E(UM062X) =  -416.309932296     A.U. after   16 cycles
 SCF Done:  E(UM062X) =  -416.310549591     A.U. after   16 cycles
 SCF Done:  E(UM062X) =  -416.311141721     A.U. after   16 cycles

                          Input orientation:
 ---------------------------------------------------------------------
 Center     Atomic      Atomic             Coordinates (Angstroms)
 Number     Number       Type             X           Y           Z
 ---------------------------------------------------------------------
      1          6           0       -0.809851    0.750427    0.483636
      2          8           0       -1.529428   -0.466361    0.305067
      3          8           0       -0.494069    1.418859   -0.612005
      4          1           0        0.720962    0.226824    0.987154
      5          1           0       -1.276392    1.315851    1.280309
      6          8           0       -0.872451   -1.339426   -0.409052
      7          1           0        0.200507    0.938790   -1.100584
      8          8           0        1.793735   -0.139610   -0.537987
      9          8           0        1.634960   -0.126973    0.865584
     10          1           0        1.542596   -1.044978   -0.761378
 ---------------------------------------------------------------------

 Alpha  occ. eigenvalues --  -19.77871 -19.73998 -19.70390 -19.69726 -19.69009
 Alpha  occ. eigenvalues --  -10.68711  -1.38051  -1.28199  -1.23996  -1.03842
 Alpha  occ. eigenvalues --   -1.02385  -0.79850  -0.69836  -0.66219  -0.65066
 Alpha  occ. eigenvalues --   -0.63094  -0.61223  -0.56533  -0.55256  -0.53158
 Alpha  occ. eigenvalues --   -0.48211  -0.43636  -0.41307  -0.40232  -0.39459
 Alpha  occ. eigenvalues --   -0.30363
 Alpha virt. eigenvalues --    0.01434   0.01709   0.04410   0.04572   0.06525
 Alpha virt. eigenvalues --    0.09479   0.11599   0.15134   0.16192   0.17281
 Alpha virt. eigenvalues --    0.17625   0.17892   0.18788   0.20188   0.20716

  Beta  occ. eigenvalues --  -19.77011 -19.72520 -19.70377 -19.69398 -19.68711
  Beta  occ. eigenvalues --  -10.67935  -1.34483  -1.27656  -1.22509  -1.01920
  Beta  occ. eigenvalues --   -0.98670  -0.76900  -0.67421  -0.63857  -0.62570
  Beta  occ. eigenvalues --   -0.60779  -0.56198  -0.53327  -0.51633  -0.51455
  Beta  occ. eigenvalues --   -0.45809  -0.40930  -0.39232  -0.37631
  Beta virt. eigenvalues --   -0.11538  -0.05392   0.01476   0.01855   0.04454
  Beta virt. eigenvalues --    0.04786   0.06880   0.09858   0.12075   0.15255
  Beta virt. eigenvalues --    0.16433   0.17472   0.18078   0.18380   0.19846

 Mulliken atomic charges:
              1
     1  C   -0.084755
     2  O    0.006564
     3  O   -0.290014
     4  H    0.286009
     5  H    0.194146
     6  O   -0.164313
     7  H    0.320681
     8  O   -0.197826
     9  O   -0.326097
    10  H    0.255605
 Sum of Mulliken atomic charges =   0.00000

 Dipole moment (field-independent basis, Debye):
    X=             -1.1288    Y=              0.3416    Z=             -0.0959  Tot=              1.1833
 Quadrupole moment (field-independent basis, Debye-Ang):
   XX=            -40.3658   YY=            -35.5970   ZZ=            -32.0502
   XY=             -3.6124   XZ=             -4.1312   YZ=              2.9437

  Exact polarizability:  41.820  -3.299  41.774  -2.600   3.250  39.406
 Approx polarizability:  44.588  -4.217  47.211  -4.350   4.129  48.459

 Normal termination of Gaussian 09 at Fri Aug  4 04:24:31 2017.
