 Gaussian 09, Revision B.01,
 Gaussian 09:  EM64L-G09RevB.01 12-Aug-2010

 ----------------------------------------------------------------------
 # m062x/6-311+g(2df,2p) irc=(calcall,report=read) geom=allcheck guess=
 check nosymm
 ----------------------------------------------------------------------

 [O]O+[O]O_OO+[O][O]
 -------------------
 Redundant internal coordinates taken from checkpoint file:
 /gss_gpfs_scratch/harms.n/QMscratch/[O]O+[O]O_OO+[O][O].chk
 Charge =  0 Multiplicity = 3

 SCF Done:  E(UM062X) =  -301.805834478     A.U. after    1 cycles
 SCF Done:  E(UM062X) =  -301.805980464     A.U. after   22 cycles
 SCF Done:  E(UM062X) =  -301.806046230     A.U. after   17 cycles
 SCF Done:  E(UM062X) =  -301.806424519     A.U. after   23 cycles
 SCF Done:  E(UM062X) =  -301.806895352     A.U. after   26 cycles
 SCF Done:  E(UM062X) =  -301.807420804     A.U. after   26 cycles
 SCF Done:  E(UM062X) =  -301.808004981     A.U. after   26 cycles
 SCF Done:  E(UM062X) =  -301.808647050     A.U. after   22 cycles
 SCF Done:  E(UM062X) =  -301.809342454     A.U. after   22 cycles
 SCF Done:  E(UM062X) =  -301.810095052     A.U. after   24 cycles
 SCF Done:  E(UM062X) =  -301.806470754     A.U. after   15 cycles
 SCF Done:  E(UM062X) =  -301.809501993     A.U. after   22 cycles
 SCF Done:  E(UM062X) =  -301.815906635     A.U. after   19 cycles
 SCF Done:  E(UM062X) =  -301.824682068     A.U. after   18 cycles
 SCF Done:  E(UM062X) =  -301.833610712     A.U. after   18 cycles
 SCF Done:  E(UM062X) =  -301.840354040     A.U. after   17 cycles
 SCF Done:  E(UM062X) =  -301.844121946     A.U. after   16 cycles
 SCF Done:  E(UM062X) =  -301.846626021     A.U. after   14 cycles
 SCF Done:  E(UM062X) =  -301.848638304     A.U. after   14 cycles
 SCF Done:  E(UM062X) =  -301.850367017     A.U. after   14 cycles

                          Input orientation:
 ---------------------------------------------------------------------
 Center     Atomic      Atomic             Coordinates (Angstroms)
 Number     Number       Type             X           Y           Z
 ---------------------------------------------------------------------
      1          8           0       -1.266490   -0.541853   -0.079271
      2          8           0       -1.305413    0.639019    0.079317
      3          1           0        0.239685   -0.909216   -0.051490
      4          8           0        1.324473    0.618055   -0.182583
      5          8           0        1.158810   -0.725654    0.144714
      6          1           0        1.166773    1.074784    0.651789
 ---------------------------------------------------------------------

 Alpha  occ. eigenvalues --  -19.82055 -19.81584 -19.68963 -19.67491  -1.49509
 Alpha  occ. eigenvalues --   -1.27865  -1.02450  -0.98912  -0.73194  -0.70970
 Alpha  occ. eigenvalues --   -0.68391  -0.63004  -0.57621  -0.52179  -0.44627
 Alpha  occ. eigenvalues --   -0.43059  -0.38317  -0.37194
 Alpha virt. eigenvalues --    0.04495   0.06852   0.10548   0.10875   0.13007
 Alpha virt. eigenvalues --    0.16226   0.17260   0.17647   0.19466   0.20284
 Alpha virt. eigenvalues --    0.22791   0.23968   0.24702   0.26492   0.27691

  Beta  occ. eigenvalues --  -19.79517 -19.79265 -19.68877 -19.67388  -1.42509
  Beta  occ. eigenvalues --   -1.27557  -1.01388  -0.89199  -0.66822  -0.62117
  Beta  occ. eigenvalues --   -0.59914  -0.57511  -0.55041  -0.51077  -0.38488
  Beta  occ. eigenvalues --   -0.38049
  Beta virt. eigenvalues --   -0.09108  -0.08526   0.04716   0.06960   0.10684
  Beta virt. eigenvalues --    0.11155   0.13441   0.16345   0.17479   0.17823
  Beta virt. eigenvalues --    0.19891   0.20440   0.22952   0.24109   0.24829

 Mulliken atomic charges:
              1
     1  O   -0.053882
     2  O    0.037158
     3  H    0.337789
     4  O   -0.197350
     5  O   -0.357446
     6  H    0.233732
 Sum of Mulliken atomic charges =   0.00000

 Dipole moment (field-independent basis, Debye):
    X=             -2.0740    Y=              0.7269    Z=              1.0765  Tot=              2.4472
 Quadrupole moment (field-independent basis, Debye-Ang):
   XX=            -25.1627   YY=            -21.0339   ZZ=            -21.7876
   XY=              1.9703   XZ=              1.4796   YZ=              2.0701

  Exact polarizability:  26.237  -0.121  27.839  -0.079   0.946  16.988
 Approx polarizability:  25.410   0.104  36.214  -0.366   1.478  19.554

 Normal termination of Gaussian 09 at Thu May 11 19:04:06 2017.
