 Gaussian 09, Revision B.01,
 Gaussian 09:  EM64L-G09RevB.01 12-Aug-2010

 ---------------------------------------------------
 # m062x/6-311+g(2df,2p) opt=(ts,calcfc,noeigentest)
 ---------------------------------------------------

 -------------------
 [O]O+[O]O_OO+[O][O]
 -------------------
 Symbolic Z-matrix:
 Charge =  0 Multiplicity = 3

 SCF Done:  E(UM062X) =  -301.816349915     A.U. after   21 cycles

  Exact polarizability:   0.000   0.000   0.000   0.000   0.000   0.000
 Approx polarizability:  52.096  -4.597  39.325   0.124  -0.560  19.417

 SCF Done:  E(UM062X) =  -301.806258627     A.U. after   23 cycles
 SCF Done:  E(UM062X) =  -301.805571490     A.U. after   27 cycles
 SCF Done:  E(UM062X) =  -301.805383222     A.U. after   27 cycles
 SCF Done:  E(UM062X) =  -301.805797527     A.U. after   23 cycles
 SCF Done:  E(UM062X) =  -301.805830893     A.U. after   17 cycles
 SCF Done:  E(UM062X) =  -301.805833303     A.U. after   17 cycles
 SCF Done:  E(UM062X) =  -301.805834176     A.U. after   15 cycles
 SCF Done:  E(UM062X) =  -301.804914977     A.U. after   23 cycles
 SCF Done:  E(UM062X) =  -301.805726635     A.U. after   24 cycles
 SCF Done:  E(UM062X) =  -301.805833788     A.U. after   14 cycles
 SCF Done:  E(UM062X) =  -301.804791771     A.U. after   26 cycles
 SCF Done:  E(UM062X) =  -301.805715347     A.U. after   26 cycles
 SCF Done:  E(UM062X) =  -301.805680146     A.U. after   26 cycles
 SCF Done:  E(UM062X) =  -301.805833631     A.U. after   24 cycles
 SCF Done:  E(UM062X) =  -301.805069207     A.U. after   23 cycles
 SCF Done:  E(UM062X) =  -301.805769021     A.U. after   23 cycles
 SCF Done:  E(UM062X) =  -301.805830237     A.U. after   18 cycles
 SCF Done:  E(UM062X) =  -301.805834420     A.U. after   16 cycles
 SCF Done:  E(UM062X) =  -301.805834478     A.U. after   15 cycles
 Optimization completed.
    -- Stationary point found.

                         Standard orientation:
 ---------------------------------------------------------------------
 Center     Atomic      Atomic             Coordinates (Angstroms)
 Number     Number       Type             X           Y           Z
 ---------------------------------------------------------------------
      1          8           0       -1.247642   -0.586872   -0.090795
      2          8           0       -1.313438    0.667233    0.075860
      3          1           0       -0.209824   -0.839089   -0.032293
      4          8           0        1.313389    0.582417   -0.181642
      5          8           0        1.138594   -0.693114    0.123115
      6          1           0        1.082602    1.081775    0.619984
 ---------------------------------------------------------------------

 The electronic state is 3-A.
 Alpha  occ. eigenvalues --  -19.77111 -19.77079 -19.74082 -19.73017  -1.39313
 Alpha  occ. eigenvalues --   -1.35780  -1.03113  -0.98175  -0.72053  -0.66891
 Alpha  occ. eigenvalues --   -0.63243  -0.61240  -0.59360  -0.58951  -0.45044
 Alpha  occ. eigenvalues --   -0.41664  -0.39618  -0.37380
 Alpha virt. eigenvalues --    0.03224   0.06442   0.10914   0.11807   0.13215
 Alpha virt. eigenvalues --    0.15985   0.16324   0.17107   0.19342   0.20545
 Alpha virt. eigenvalues --    0.22187   0.23844   0.24817   0.25227   0.26101

  Beta  occ. eigenvalues --  -19.76326 -19.75749 -19.72254 -19.71967  -1.35028
  Beta  occ. eigenvalues --   -1.32618  -0.99185  -0.91979  -0.68640  -0.63779
  Beta  occ. eigenvalues --   -0.57565  -0.57141  -0.51930  -0.50477  -0.39552
  Beta  occ. eigenvalues --   -0.34957
  Beta virt. eigenvalues --   -0.12881  -0.07478   0.03934   0.07007   0.11569
  Beta virt. eigenvalues --    0.12159   0.13699   0.16506   0.16747   0.17652
  Beta virt. eigenvalues --    0.20011   0.21706   0.22557   0.24144   0.25115

 Mulliken atomic charges:
              1
     1  O   -0.152371
     2  O   -0.155162
     3  H    0.398742
     4  O   -0.041218
     5  O   -0.315566
     6  H    0.265575
 Sum of Mulliken atomic charges =   0.00000

 Dipole moment (field-independent basis, Debye):
    X=              0.8353    Y=              0.7547    Z=              1.1461  Tot=              1.6066
 Quadrupole moment (field-independent basis, Debye-Ang):
   XX=            -25.6654   YY=            -21.0658   ZZ=            -21.8520
   XY=              2.5466   XZ=              1.4755   YZ=              1.6381

 Normal termination of Gaussian 09 at Thu May 11 17:32:00 2017.
