 Gaussian 09, Revision B.01,
 Gaussian 09:  EM64L-G09RevB.01 12-Aug-2010

 --------------------------------------------------------
 # m062x/6-311+g(2df,2p) opt=(ts,calcfc,noeigentest) freq
 --------------------------------------------------------

 -------------------------
 [O]O+[O]OC=O_OO+[O]O[C]=O
 -------------------------
 Symbolic Z-matrix:
 Charge =  0 Multiplicity = 3

 SCF Done:  E(UM062X) =  -415.087912458     A.U. after   22 cycles
 Optimization completed.
    -- Stationary point found.
 Normal termination of Gaussian 09 at Thu Aug  3 16:47:27 2017.

 ----------------------------------------------------------------------
 #N Geom=AllCheck Guess=TCheck SCRF=Check GenChk UM062X/6-311+G(2df,2p)
  Freq
 ----------------------------------------------------------------------

 [O]O+[O]OC=O_OO+[O]O[C]=O
 -------------------------
 Redundant internal coordinates taken from checkpoint file:
 /gss_gpfs_scratch/harms.n/QMscratch/[O]O+[O]OC=O_OO+[O]O[C]=O.chk
 Charge =  0 Multiplicity = 3

                         Standard orientation:
 ---------------------------------------------------------------------
 Center     Atomic      Atomic             Coordinates (Angstroms)
 Number     Number       Type             X           Y           Z
 ---------------------------------------------------------------------
      1          6           0       -0.527131    0.619699   -0.028763
      2          8           0       -0.835064   -0.752860   -0.181214
      3          8           0       -1.272684    1.474492    0.222639
      4          1           0        0.833119    0.659564   -0.244819
      5          8           0       -2.102008   -1.018339    0.004886
      6          8           0        2.274925   -0.540484    0.449889
      7          8           0        1.945036    0.457680   -0.432800
      8          1           0        2.248030   -1.341671   -0.089799
 ---------------------------------------------------------------------

 SCF Done:  E(UM062X) =  -415.087912458     A.U. after    1 cycles

 The electronic state is 3-A.
 Alpha  occ. eigenvalues --  -19.80514 -19.76024 -19.72872 -19.72794 -19.71437
 Alpha  occ. eigenvalues --  -10.72710  -1.40221  -1.31795  -1.27401  -1.05989
 Alpha  occ. eigenvalues --   -1.02728  -0.75523  -0.69562  -0.66312  -0.64612
 Alpha  occ. eigenvalues --   -0.64487  -0.61568  -0.56517  -0.54652  -0.54170
 Alpha  occ. eigenvalues --   -0.45449  -0.43082  -0.42507  -0.41440  -0.35654
 Alpha virt. eigenvalues --   -0.01390   0.01694   0.02776   0.04799   0.05403
 Alpha virt. eigenvalues --    0.08061   0.10425   0.11841   0.15123   0.16268
 Alpha virt. eigenvalues --    0.17035   0.17821   0.19067   0.20230   0.20714

  Beta  occ. eigenvalues --  -19.79779 -19.74420 -19.72553 -19.71988 -19.70995
  Beta  occ. eigenvalues --  -10.72162  -1.36745  -1.30006  -1.25756  -1.01051
  Beta  occ. eigenvalues --   -0.99634  -0.72144  -0.66821  -0.62924  -0.62539
  Beta  occ. eigenvalues --   -0.59628  -0.58399  -0.54142  -0.50527  -0.50084
  Beta  occ. eigenvalues --   -0.41338  -0.40255  -0.37178
  Beta virt. eigenvalues --   -0.14519  -0.12258   0.00848   0.01665   0.03001
  Beta virt. eigenvalues --    0.05091   0.05654   0.08189   0.11126   0.12235
  Beta virt. eigenvalues --    0.15219   0.16187   0.17284   0.18221   0.19577

 Mulliken atomic charges:
              1
     1  C    0.131267
     2  O   -0.010002
     3  O   -0.227714
     4  H    0.342842
     5  O   -0.065725
     6  O   -0.158185
     7  O   -0.271844
     8  H    0.259361
 Sum of Mulliken atomic charges =   0.00000

 Dipole moment (field-independent basis, Debye):
    X=              0.6829    Y=             -1.5523    Z=             -0.7833  Tot=              1.8680
 Quadrupole moment (field-independent basis, Debye-Ang):
   XX=            -38.2044   YY=            -33.1455   ZZ=            -33.0999
   XY=             -3.4842   XZ=             -0.7354   YZ=              0.1190

  Exact polarizability:  92.913  -6.826  42.489  -2.019  -0.358  26.043
 Approx polarizability:  84.745  -8.173  50.685  -3.260  -0.649  32.367

 ******    1 imaginary frequencies (negative Signs) ******

                     1                      2                      3
                     A                      A                      A
 Frequencies -- -2002.6832                59.9801                74.7481
 Red. masses --     1.0927                 7.6410                 8.1716
 Frc consts  --     2.5821                 0.0162                 0.0269
 IR Inten    --  5154.6877                 2.0724                 2.1121

                     4                      5                      6
                     A                      A                      A
 Frequencies --   105.3946               196.4664               340.0703
 Red. masses --     9.9745                10.5510                14.1321
 Frc consts  --     0.0653                 0.2400                 0.9629
 IR Inten    --     9.0217                 3.2319                 2.9944

                     7                      8                      9
                     A                      A                      A
 Frequencies --   383.7808               433.0220               493.7712
 Red. masses --     5.1128                 1.3536                 5.9331
 Frc consts  --     0.4437                 0.1495                 0.8523
 IR Inten    --    27.7366                82.7474                71.0178

                    10                     11                     12
                     A                      A                      A
 Frequencies --   714.7237               869.6452              1027.1086
 Red. masses --    13.5932                 5.5150                 1.3011
 Frc consts  --     4.0912                 2.4574                 0.8087
 IR Inten    --    89.8307               136.2793                11.9238

                    13                     14                     15
                     A                      A                      A
 Frequencies --  1108.1751              1162.2523              1442.0424
 Red. masses --     9.7778                 9.4606                 1.1166
 Frc consts  --     7.0747                 7.5295                 1.3681
 IR Inten    --    34.0864                10.8268                47.0624

                    16                     17                     18
                     A                      A                      A
 Frequencies --  1480.6607              1991.0783              3812.0952
 Red. masses --     1.0614                11.9940                 1.0682
 Frc consts  --     1.3710                28.0151                 9.1464
 IR Inten    --     9.7323               322.1079                99.2794

 - Thermochemistry -
 -------------------
 Temperature   298.150 Kelvin.  Pressure   1.00000 Atm.
 Atom     1 has atomic number  6 and mass  12.00000

 Molecular mass:    93.99022 amu.
 Principal axes and moments of inertia in atomic units:
                           1         2         3
     Eigenvalues --   296.04982 956.020821197.58663
           X            0.99991  -0.01335  -0.00163
           Y            0.01335   0.99991  -0.00050
           Z            0.00164   0.00048   1.00000
 This molecule is an asymmetric top.
 Rotational symmetry number  1.
 Rotational temperatures (Kelvin)      0.29256     0.09060     0.07232
 Rotational constants (GHZ):           6.09607     1.88776     1.50698
    1 imaginary frequencies ignored.
 Zero-point vibrational energy      93877.0 (Joules/Mol)
                                   22.43715 (Kcal/Mol)
 Warning -- explicit consideration of   8 degrees of freedom as
           vibrations may cause significant error
 Vibrational temperatures:     86.30   107.55   151.64   282.67   489.28
          (Kelvin)            552.17   623.02   710.43  1028.33  1251.22
                             1477.78  1594.41  1672.22  2074.77  2130.34
                             2864.71  5484.75

 Zero-point correction=                           0.035756 (Hartree/Particle)
 Thermal correction to Energy=                    0.042939
 Thermal correction to Enthalpy=                  0.043883
 Thermal correction to Gibbs Free Energy=         0.002327
 Sum of electronic and zero-point Energies=           -415.052157
 Sum of electronic and thermal Energies=              -415.044974
 Sum of electronic and thermal Enthalpies=            -415.044029
 Sum of electronic and thermal Free Energies=         -415.085586

                     E (Thermal)             CV                S
                      KCal/Mol        Cal/Mol-Kelvin    Cal/Mol-Kelvin
 Total                   26.945             21.833             87.462
 Electronic               0.000              0.000              2.183
 Translational            0.889              2.981             39.533
 Rotational               0.889              2.981             27.319
 Vibrational             25.167             15.872             18.427
 Vibration     1          0.597              1.973              4.458
 Vibration     2          0.599              1.966              4.024
 Vibration     3          0.605              1.945              3.352
 Vibration     4          0.636              1.845              2.166
 Vibration     5          0.720              1.595              1.212
 Vibration     6          0.753              1.505              1.024
 Vibration     7          0.794              1.398              0.849
 Vibration     8          0.849              1.264              0.674

 Optimization completed.
    -- Stationary point found.
 Normal termination of Gaussian 09 at Thu Aug  3 16:53:54 2017.
