 Gaussian 09, Revision B.01,
 Gaussian 09:  EM64L-G09RevB.01 12-Aug-2010

 --------------------------------------------------------
 # m062x/6-311+g(2df,2p) opt=(ts,calcfc,noeigentest) freq
 --------------------------------------------------------

 ------------------------------
 [O]O+[O]OCCCCO_OO+[O]OC[CH]CCO
 ------------------------------
 Symbolic Z-matrix:
 Charge =  0 Multiplicity = 3

 SCF Done:  E(UM062X) =  -534.210069162     A.U. after   21 cycles
 Optimization completed.
    -- Stationary point found.
 Normal termination of Gaussian 09 at Sat Aug 12 04:30:13 2017.

 ----------------------------------------------------------------------
 #N Geom=AllCheck Guess=TCheck SCRF=Check GenChk UM062X/6-311+G(2df,2p)
  Freq
 ----------------------------------------------------------------------

 [O]O+[O]OCCCCO_OO+[O]OC[CH]CCO
 ------------------------------
 Redundant internal coordinates taken from checkpoint file:
 /gss_gpfs_scratch/harms.n/QMscratch/[O]O+[O]OCCCCO_OO+[O]OC[CH]CCO.chk
 Charge =  0 Multiplicity = 3

                         Standard orientation:
 ---------------------------------------------------------------------
 Center     Atomic      Atomic             Coordinates (Angstroms)
 Number     Number       Type             X           Y           Z
 ---------------------------------------------------------------------
      1          6           0        0.177024   -0.810679    0.620147
      2          6           0       -0.117153    0.651511    0.824288
      3          6           0        1.178570   -1.234850   -0.413875
      4          6           0       -0.370977    1.434658   -0.458331
      5          8           0        2.538566   -0.926396    0.003903
      6          8           0       -0.771955    2.760872   -0.180033
      7          1           0       -0.952885   -1.298114    0.099154
      8          1           0        0.258911   -1.382773    1.542864
      9          1           0       -0.995255    0.754880    1.466046
     10          1           0        0.720711    1.109942    1.364923
     11          1           0        1.187893   -2.315593   -0.540090
     12          1           0        1.022037   -0.752819   -1.376843
     13          1           0       -1.191413    0.977625   -1.012441
     14          1           0        0.520504    1.427379   -1.091068
     15          8           0        2.778936    0.344105   -0.052050
     16          1           0       -0.023706    3.242956    0.177438
     17          8           0       -2.874506   -0.661349    0.001524
     18          8           0       -1.976867   -1.638444   -0.378657
     19          1           0       -3.304976   -1.037617    0.779146
 ---------------------------------------------------------------------

 SCF Done:  E(UM062X) =  -534.210069162     A.U. after    1 cycles

 The electronic state is 3-A.
 Alpha  occ. eigenvalues --  -19.76042 -19.71078 -19.70797 -19.70637 -19.62321
 Alpha  occ. eigenvalues --  -10.61977 -10.58377 -10.58091 -10.55040  -1.35579
 Alpha  occ. eigenvalues --   -1.29492  -1.14842  -1.01808  -1.00831  -0.91826
 Alpha  occ. eigenvalues --   -0.82285  -0.75543  -0.69411  -0.65109  -0.63162
 Alpha  occ. eigenvalues --   -0.61932  -0.60457  -0.60008  -0.58827  -0.54627
 Alpha  occ. eigenvalues --   -0.54237  -0.51921  -0.51138  -0.47862  -0.45255
 Alpha  occ. eigenvalues --   -0.44730  -0.42598  -0.40216  -0.39635  -0.38309
 Alpha  occ. eigenvalues --   -0.37498  -0.35237  -0.31180
 Alpha virt. eigenvalues --    0.00655   0.01677   0.01987   0.03082   0.04693
 Alpha virt. eigenvalues --    0.05074   0.05424   0.06598   0.07884   0.09413
 Alpha virt. eigenvalues --    0.09726   0.10148   0.10769   0.11561   0.12582

  Beta  occ. eigenvalues --  -19.75081 -19.70866 -19.69849 -19.69242 -19.62322
  Beta  occ. eigenvalues --  -10.62027 -10.58372 -10.57609 -10.55056  -1.32089
  Beta  occ. eigenvalues --   -1.27715  -1.14841  -0.98853  -0.97552  -0.90141
  Beta  occ. eigenvalues --   -0.80996  -0.74692  -0.67914  -0.63125  -0.60697
  Beta  occ. eigenvalues --   -0.60251  -0.58764  -0.57358  -0.54526  -0.53055
  Beta  occ. eigenvalues --   -0.52323  -0.50777  -0.48929  -0.45947  -0.44424
  Beta  occ. eigenvalues --   -0.42767  -0.40283  -0.38695  -0.37652  -0.35418
  Beta  occ. eigenvalues --   -0.34685
  Beta virt. eigenvalues --   -0.10939  -0.06545   0.00732   0.01777   0.01946
  Beta virt. eigenvalues --    0.03157   0.04999   0.05097   0.05558   0.06656
  Beta virt. eigenvalues --    0.07944   0.09509   0.10033   0.10210   0.10942

 Mulliken atomic charges:
              1
     1  C   -0.489169
     2  C   -0.404408
     3  C   -0.275315
     4  C   -0.167837
     5  O    0.026306
     6  O   -0.373927
     7  H    0.436495
     8  H    0.203043
     9  H    0.222585
    10  H    0.205623
    11  H    0.176837
    12  H    0.207161
    13  H    0.194431
    14  H    0.166595
    15  O   -0.159687
    16  H    0.249295
    17  O   -0.161017
    18  O   -0.308563
    19  H    0.251552
 Sum of Mulliken atomic charges =   0.00000

 Dipole moment (field-independent basis, Debye):
    X=             -0.3933    Y=             -1.7385    Z=              1.8925  Tot=              2.5997
 Quadrupole moment (field-independent basis, Debye-Ang):
   XX=            -62.2858   YY=            -55.0226   ZZ=            -51.9105
   XY=              4.0848   XZ=             -6.7498   YZ=              0.1141

  Exact polarizability: 108.837   9.353  83.184   4.303   3.455  63.816
 Approx polarizability: 112.965   7.711  95.883   6.124   4.984  80.011

 ******    1 imaginary frequencies (negative Signs) ******

                     1                      2                      3
                     A                      A                      A
 Frequencies -- -1877.6433                65.2899                76.7071
 Red. masses --     1.1125                 6.7207                 7.7441
 Frc consts  --     2.3108                 0.0169                 0.0268
 IR Inten    --  1953.1508                 4.8559                 0.7745

                     4                      5                      6
                     A                      A                      A
 Frequencies --    82.3033               100.8669               122.6651
 Red. masses --     5.6562                 6.1053                 6.4536
 Frc consts  --     0.0226                 0.0366                 0.0572
 IR Inten    --     9.1069                 1.7213                 6.2825

                     7                      8                      9
                     A                      A                      A
 Frequencies --   158.3506               196.7326               205.1137
 Red. masses --     2.2266                 3.9178                 4.4126
 Frc consts  --     0.0329                 0.0893                 0.1094
 IR Inten    --     3.3003                 2.7876                 3.8094

                    10                     11                     12
                     A                      A                      A
 Frequencies --   265.5343               337.3495               363.8070
 Red. masses --     3.3504                 2.1893                 2.1236
 Frc consts  --     0.1392                 0.1468                 0.1656
 IR Inten    --     5.6248                16.1725                42.2542

                    13                     14                     15
                     A                      A                      A
 Frequencies --   376.2216               437.9771               528.5757
 Red. masses --     1.8675                 1.2628                 3.1429
 Frc consts  --     0.1557                 0.1427                 0.5174
 IR Inten    --    70.4861                88.3957                15.5127

                    16                     17                     18
                     A                      A                      A
 Frequencies --   540.1994               602.7294               740.7841
 Red. masses --     3.0959                 1.9749                 1.2095
 Frc consts  --     0.5323                 0.4227                 0.3910
 IR Inten    --     8.1601                 8.8598                13.8818

                    19                     20                     21
                     A                      A                      A
 Frequencies --   854.9892               879.1490               934.9301
 Red. masses --     1.7578                 2.9589                 3.0798
 Frc consts  --     0.7571                 1.3474                 1.5861
 IR Inten    --     7.7399                13.4336                27.1757

                    22                     23                     24
                     A                      A                      A
 Frequencies --   990.0809              1051.5995              1091.5674
 Red. masses --     1.9480                 1.5191                 6.3661
 Frc consts  --     1.1251                 0.9898                 4.4691
 IR Inten    --     5.2817                52.5657                43.2300

                    25                     26                     27
                     A                      A                      A
 Frequencies --  1111.5834              1127.8578              1149.2099
 Red. masses --     3.1102                 1.5032                 1.9140
 Frc consts  --     2.2642                 1.1266                 1.4893
 IR Inten    --    77.6517                17.9189                15.2819

                    28                     29                     30
                     A                      A                      A
 Frequencies --  1157.3018              1196.4421              1236.7476
 Red. masses --     2.1143                 1.2647                 1.9007
 Frc consts  --     1.6684                 1.0667                 1.7129
 IR Inten    --     3.8695                12.2975                 3.8451

                    31                     32                     33
                     A                      A                      A
 Frequencies --  1298.3798              1316.6664              1332.4689
 Red. masses --     2.0800                 1.1936                 1.4011
 Frc consts  --     2.0659                 1.2191                 1.4657
 IR Inten    --     4.0458                11.2336                 1.7715

                    34                     35                     36
                     A                      A                      A
 Frequencies --  1378.6851              1402.8935              1406.7313
 Red. masses --     1.4643                 1.1977                 1.4069
 Frc consts  --     1.6398                 1.3889                 1.6404
 IR Inten    --    10.5488                12.5676                 9.4931

                    37                     38                     39
                     A                      A                      A
 Frequencies --  1434.3050              1438.8272              1460.8729
 Red. masses --     1.1317                 1.3484                 1.0830
 Frc consts  --     1.3718                 1.6447                 1.3618
 IR Inten    --    35.0569                26.3246                11.6881

                    40                     41                     42
                     A                      A                      A
 Frequencies --  1471.7360              1501.9996              1527.9128
 Red. masses --     1.1128                 1.1007                 1.0879
 Frc consts  --     1.4201                 1.4631                 1.4963
 IR Inten    --     5.1709                 8.1774                 3.6008

                    43                     44                     45
                     A                      A                      A
 Frequencies --  3014.8627              3066.5858              3076.6547
 Red. masses --     1.0659                 1.0757                 1.0788
 Frc consts  --     5.7083                 5.9600                 6.0163
 IR Inten    --     3.9888                 9.3612                22.5920

                    46                     47                     48
                     A                      A                      A
 Frequencies --  3111.5406              3118.7348              3130.9578
 Red. masses --     1.0590                 1.0845                 1.1038
 Frc consts  --     6.0410                 6.2148                 6.3751
 IR Inten    --     7.9492                 8.5805                 6.7245

                    49                     50                     51
                     A                      A                      A
 Frequencies --  3172.1118              3809.7243              3905.4201
 Red. masses --     1.1087                 1.0684                 1.0665
 Frc consts  --     6.5729                 9.1360                 9.5841
 IR Inten    --     4.2609                90.5556                41.8352

 - Thermochemistry -
 -------------------
 Temperature   298.150 Kelvin.  Pressure   1.00000 Atm.
 Atom     1 has atomic number  6 and mass  12.00000

 Molecular mass:   138.05282 amu.
 Principal axes and moments of inertia in atomic units:
                           1         2         3
     Eigenvalues --  1075.765151782.022822631.52586
           X            0.99995   0.00165  -0.00953
           Y           -0.00166   1.00000  -0.00054
           Z            0.00953   0.00055   0.99995
 This molecule is an asymmetric top.
 Rotational symmetry number  1.
 Warning -- assumption of classical behavior for rotation
           may cause significant error
 Rotational temperatures (Kelvin)      0.08051     0.04860     0.03291
 Rotational constants (GHZ):           1.67763     1.01275     0.68582
    1 imaginary frequencies ignored.
 Zero-point vibrational energy     384962.7 (Joules/Mol)
                                   92.00829 (Kcal/Mol)
 Warning -- explicit consideration of  16 degrees of freedom as
           vibrations may cause significant error
 Vibrational temperatures:     93.94   110.36   118.42   145.12   176.49
          (Kelvin)            227.83   283.05   295.11   382.04   485.37
                              523.44   541.30   630.15   760.50   777.23
                              867.19  1065.82  1230.14  1264.90  1345.15
                             1424.50  1513.02  1570.52  1599.32  1622.73
                             1653.45  1665.10  1721.41  1779.40  1868.08
                             1894.39  1917.12  1983.62  2018.45  2023.97
                             2063.64  2070.15  2101.87  2117.50  2161.04
                             2198.32  4337.71  4412.13  4426.61  4476.81
                             4487.16  4504.74  4563.96  5481.34  5619.02

 Zero-point correction=                           0.146625 (Hartree/Particle)
 Thermal correction to Energy=                    0.157902
 Thermal correction to Enthalpy=                  0.158846
 Thermal correction to Gibbs Free Energy=         0.107928
 Sum of electronic and zero-point Energies=           -534.063445
 Sum of electronic and thermal Energies=              -534.052168
 Sum of electronic and thermal Enthalpies=            -534.051223
 Sum of electronic and thermal Free Energies=         -534.102141

                     E (Thermal)             CV                S
                      KCal/Mol        Cal/Mol-Kelvin    Cal/Mol-Kelvin
 Total                   99.085             38.407            107.165
 Electronic               0.000              0.000              2.183
 Translational            0.889              2.981             40.679
 Rotational               0.889              2.981             30.002
 Vibrational             97.307             32.446             34.301
 Vibration     1          0.597              1.971              4.291
 Vibration     2          0.599              1.965              3.973
 Vibration     3          0.600              1.961              3.835
 Vibration     4          0.604              1.948              3.438
 Vibration     5          0.610              1.930              3.058
 Vibration     6          0.621              1.893              2.569
 Vibration     7          0.636              1.844              2.163
 Vibration     8          0.640              1.833              2.087
 Vibration     9          0.671              1.736              1.625
 Vibration    10          0.718              1.601              1.225
 Vibration    11          0.737              1.547              1.106
 Vibration    12          0.747              1.521              1.054
 Vibration    13          0.798              1.387              0.833
 Vibration    14          0.884              1.187              0.590
 Vibration    15          0.895              1.161              0.565
 Vibration    16          0.961              1.026              0.445

 Optimization completed.
    -- Stationary point found.
 Normal termination of Gaussian 09 at Sat Aug 12 05:27:35 2017.
