 Gaussian 09, Revision B.01,
 Gaussian 09:  EM64L-G09RevB.01 12-Aug-2010

 ---------------------------------------------------
 # m062x/6-311+g(2df,2p) opt=(ts,calcfc,noeigentest)
 ---------------------------------------------------

 ------------------------
 [O]O+[O]OCO_OO+[O]O[CH]O
 ------------------------
 Symbolic Z-matrix:
 Charge =  0 Multiplicity = 3

 SCF Done:  E(UM062X) =  -416.302292973     A.U. after   21 cycles

  Exact polarizability:   0.000   0.000   0.000   0.000   0.000   0.000
 Approx polarizability:  66.007  -9.124  46.657   5.501  -5.337  50.191

 SCF Done:  E(UM062X) =  -416.301780348     A.U. after   22 cycles
 SCF Done:  E(UM062X) =  -416.298739350     A.U. after   20 cycles
 SCF Done:  E(UM062X) =  -416.301750399     A.U. after   19 cycles
 SCF Done:  E(UM062X) =  -416.301212901     A.U. after   20 cycles
 SCF Done:  E(UM062X) =  -416.302066241     A.U. after   18 cycles
 SCF Done:  E(UM062X) =  -416.302310607     A.U. after   18 cycles
 SCF Done:  E(UM062X) =  -416.302327531     A.U. after   18 cycles
 SCF Done:  E(UM062X) =  -416.301675379     A.U. after   18 cycles
 SCF Done:  E(UM062X) =  -416.302434831     A.U. after   18 cycles
 SCF Done:  E(UM062X) =  -416.301957143     A.U. after   18 cycles
 SCF Done:  E(UM062X) =  -416.302426488     A.U. after   18 cycles
 SCF Done:  E(UM062X) =  -416.302048142     A.U. after   18 cycles
 SCF Done:  E(UM062X) =  -416.302219434     A.U. after   18 cycles
 SCF Done:  E(UM062X) =  -416.301597992     A.U. after   19 cycles
 SCF Done:  E(UM062X) =  -416.302499848     A.U. after   18 cycles
 SCF Done:  E(UM062X) =  -416.302521581     A.U. after   18 cycles
 SCF Done:  E(UM062X) =  -416.302525489     A.U. after   17 cycles
 SCF Done:  E(UM062X) =  -416.302526782     A.U. after   16 cycles
 SCF Done:  E(UM062X) =  -416.302526815     A.U. after   12 cycles
 Optimization completed.
    -- Stationary point found.

                         Standard orientation:
 ---------------------------------------------------------------------
 Center     Atomic      Atomic             Coordinates (Angstroms)
 Number     Number       Type             X           Y           Z
 ---------------------------------------------------------------------
      1          6           0       -0.741034    0.710489    0.501248
      2          8           0       -1.526165   -0.480703    0.303960
      3          8           0       -0.509289    1.401956   -0.617199
      4          1           0        0.466649    0.263228    0.917275
      5          1           0       -1.235113    1.284397    1.279576
      6          8           0       -0.888553   -1.357146   -0.414996
      7          1           0        0.199101    0.965897   -1.122157
      8          8           0        1.793385   -0.157751   -0.525496
      9          8           0        1.569915   -0.122496    0.839838
     10          1           0        1.501224   -1.047331   -0.771035
 ---------------------------------------------------------------------

 The electronic state is 3-A.
 Alpha  occ. eigenvalues --  -19.77455 -19.73205 -19.72143 -19.71303 -19.68819
 Alpha  occ. eigenvalues --  -10.68639  -1.37643  -1.30327  -1.22967  -1.02926
 Alpha  occ. eigenvalues --   -1.01456  -0.79884  -0.70101  -0.66204  -0.64666
 Alpha  occ. eigenvalues --   -0.63736  -0.61298  -0.56109  -0.55260  -0.54276
 Alpha  occ. eigenvalues --   -0.47182  -0.44890  -0.40762  -0.40509  -0.39739
 Alpha  occ. eigenvalues --   -0.32215
 Alpha virt. eigenvalues --    0.01532   0.01802   0.04348   0.04564   0.06966
 Alpha virt. eigenvalues --    0.09777   0.11680   0.15184   0.15942   0.17345
 Alpha virt. eigenvalues --    0.17808   0.18217   0.18580   0.20084   0.20719

  Beta  occ. eigenvalues --  -19.76585 -19.71948 -19.71760 -19.70379 -19.68582
  Beta  occ. eigenvalues --  -10.68087  -1.34211  -1.28614  -1.21831  -0.99528
  Beta  occ. eigenvalues --   -0.97710  -0.77302  -0.67534  -0.63692  -0.62084
  Beta  occ. eigenvalues --   -0.61621  -0.55411  -0.53928  -0.51035  -0.50322
  Beta  occ. eigenvalues --   -0.45204  -0.40294  -0.39035  -0.36655
  Beta virt. eigenvalues --   -0.12389  -0.07381   0.01719   0.01957   0.04552
  Beta virt. eigenvalues --    0.04776   0.07377   0.10255   0.12162   0.15453
  Beta virt. eigenvalues --    0.16394   0.17853   0.18269   0.18651   0.19481

 Mulliken atomic charges:
              1
     1  C   -0.100285
     2  O    0.016852
     3  O   -0.307644
     4  H    0.282881
     5  H    0.185184
     6  O   -0.190708
     7  H    0.308378
     8  O   -0.168342
     9  O   -0.288959
    10  H    0.262644
 Sum of Mulliken atomic charges =   0.00000

 Dipole moment (field-independent basis, Debye):
    X=             -0.4526    Y=              0.2148    Z=             -0.1179  Tot=              0.5146
 Quadrupole moment (field-independent basis, Debye-Ang):
   XX=            -39.4625   YY=            -35.9128   ZZ=            -32.0995
   XY=             -3.6330   XZ=             -4.1423   YZ=              2.7295

 Normal termination of Gaussian 09 at Thu Aug  3 23:49:47 2017.
