 Gaussian 09, Revision B.01,
 Gaussian 09:  EM64L-G09RevB.01 12-Aug-2010

 ----------------------------------------------------------
 # m062x/6-311+g(2df,2p) Opt=(ModRedun,Loose) Int(Grid=SG1)
 ----------------------------------------------------------

 -------------------------
 [O]O+[O]OC=O_OO+[O]O[C]=O
 -------------------------
 Symbolic Z-matrix:
 Charge =  0 Multiplicity = 3

 SCF Done:  E(UM062X) =  -415.001027083     A.U. after   30 cycles
 SCF Done:  E(UM062X) =  -415.032648517     A.U. after   27 cycles
 SCF Done:  E(UM062X) =  -415.055052901     A.U. after   24 cycles
 SCF Done:  E(UM062X) =  -415.065591422     A.U. after   23 cycles
 SCF Done:  E(UM062X) =  -415.078686119     A.U. after   24 cycles
 SCF Done:  E(UM062X) =  -415.082124811     A.U. after   20 cycles
 SCF Done:  E(UM062X) =  -415.084120323     A.U. after   22 cycles
 SCF Done:  E(UM062X) =  -415.084836305     A.U. after   21 cycles
 SCF Done:  E(UM062X) =  -415.085301615     A.U. after   19 cycles
 SCF Done:  E(UM062X) =  -415.085781089     A.U. after   21 cycles
 SCF Done:  E(UM062X) =  -415.086054760     A.U. after   23 cycles
 SCF Done:  E(UM062X) =  -415.086281371     A.U. after   22 cycles
 SCF Done:  E(UM062X) =  -415.086515279     A.U. after   20 cycles
 SCF Done:  E(UM062X) =  -415.086789161     A.U. after   19 cycles
 SCF Done:  E(UM062X) =  -415.087256624     A.U. after   20 cycles
 SCF Done:  E(UM062X) =  -415.087482575     A.U. after   19 cycles
 SCF Done:  E(UM062X) =  -415.087549387     A.U. after   19 cycles
 SCF Done:  E(UM062X) =  -415.087561522     A.U. after   18 cycles
 SCF Done:  E(UM062X) =  -415.087555715     A.U. after   19 cycles
 SCF Done:  E(UM062X) =  -415.087592325     A.U. after   19 cycles
 Optimization completed.
    -- Stationary point found.

                         Standard orientation:
 ---------------------------------------------------------------------
 Center     Atomic      Atomic             Coordinates (Angstroms)
 Number     Number       Type             X           Y           Z
 ---------------------------------------------------------------------
      1          6           0       -0.547548    0.646627   -0.029877
      2          8           0       -0.787457   -0.739177   -0.205399
      3          8           0       -1.345651    1.451310    0.230858
      4          1           0        0.809466    0.757578   -0.234339
      5          8           0       -2.032562   -1.072752    0.010900
      6          8           0        2.263346   -0.493643    0.474098
      7          8           0        1.941714    0.441525   -0.459832
      8          1           0        2.160711   -1.335443    0.008606
 ---------------------------------------------------------------------

 The electronic state is 3-A.
 Alpha  occ. eigenvalues --  -19.79973 -19.75548 -19.73821 -19.73653 -19.70635
 Alpha  occ. eigenvalues --  -10.72268  -1.39746  -1.33040  -1.26649  -1.05410
 Alpha  occ. eigenvalues --   -1.02809  -0.75082  -0.69442  -0.65912  -0.65103
 Alpha  occ. eigenvalues --   -0.63888  -0.61601  -0.57587  -0.54020  -0.53924
 Alpha  occ. eigenvalues --   -0.45340  -0.42680  -0.42527  -0.41856  -0.35712
 Alpha virt. eigenvalues --   -0.01047   0.01622   0.02854   0.04877   0.05352
 Alpha virt. eigenvalues --    0.08165   0.10574   0.11658   0.14710   0.16223
 Alpha virt. eigenvalues --    0.17364   0.17875   0.19154   0.20384   0.20607

  Beta  occ. eigenvalues --  -19.79275 -19.73961 -19.73499 -19.72674 -19.70247
  Beta  occ. eigenvalues --  -10.71787  -1.36356  -1.31009  -1.25149  -1.00697
  Beta  occ. eigenvalues --   -0.99316  -0.71847  -0.67004  -0.63179  -0.62047
  Beta  occ. eigenvalues --   -0.59217  -0.58471  -0.54463  -0.50555  -0.49557
  Beta  occ. eigenvalues --   -0.41190  -0.40411  -0.36852
  Beta virt. eigenvalues --   -0.14484  -0.11847   0.00947   0.01725   0.03082
  Beta virt. eigenvalues --    0.05129   0.05688   0.08327   0.11222   0.12025
  Beta virt. eigenvalues --    0.14831   0.16191   0.17644   0.18368   0.19698

 Mulliken atomic charges:
              1
     1  C    0.134061
     2  O   -0.020774
     3  O   -0.238098
     4  H    0.300373
     5  O   -0.064001
     6  O   -0.141817
     7  O   -0.232919
     8  H    0.263176
 Sum of Mulliken atomic charges =   0.00000

 Dipole moment (field-independent basis, Debye):
    X=              1.0611    Y=             -1.5321    Z=             -0.6211  Tot=              1.9644
 Quadrupole moment (field-independent basis, Debye-Ang):
   XX=            -38.3020   YY=            -32.9852   ZZ=            -33.2198
   XY=             -3.2448   XZ=             -0.2505   YZ=             -0.2944

 Normal termination of Gaussian 09 at Thu Aug  3 16:11:20 2017.
