 Gaussian 09, Revision B.01,
 Gaussian 09:  EM64L-G09RevB.01 12-Aug-2010

 ---------------------------------------------------
 # m062x/6-311+g(2df,2p) opt=(ts,calcfc,noeigentest)
 ---------------------------------------------------

 ------------------------------
 [O]O+[O]OCCCCO_OO+[O]OC[CH]CCO
 ------------------------------
 Symbolic Z-matrix:
 Charge =  0 Multiplicity = 3

 SCF Done:  E(UM062X) =  -534.210031103     A.U. after   21 cycles

  Exact polarizability:   0.000   0.000   0.000   0.000   0.000   0.000
 Approx polarizability: 114.502   7.843  95.613   6.199   4.911  80.207

 SCF Done:  E(UM062X) =  -534.210040284     A.U. after   18 cycles
 SCF Done:  E(UM062X) =  -534.210066986     A.U. after   17 cycles
 SCF Done:  E(UM062X) =  -534.210067239     A.U. after   16 cycles
 SCF Done:  E(UM062X) =  -534.209982260     A.U. after   18 cycles
 SCF Done:  E(UM062X) =  -534.210061658     A.U. after   18 cycles
 SCF Done:  E(UM062X) =  -534.210049117     A.U. after   17 cycles
 SCF Done:  E(UM062X) =  -534.210028362     A.U. after   17 cycles
 SCF Done:  E(UM062X) =  -534.209957472     A.U. after   18 cycles
 SCF Done:  E(UM062X) =  -534.210043944     A.U. after   17 cycles
 SCF Done:  E(UM062X) =  -534.210062610     A.U. after   17 cycles
 SCF Done:  E(UM062X) =  -534.210069010     A.U. after   15 cycles
 SCF Done:  E(UM062X) =  -534.210069162     A.U. after   14 cycles
 Optimization completed.
    -- Stationary point found.

                         Standard orientation:
 ---------------------------------------------------------------------
 Center     Atomic      Atomic             Coordinates (Angstroms)
 Number     Number       Type             X           Y           Z
 ---------------------------------------------------------------------
      1          6           0        0.177024   -0.810679    0.620147
      2          6           0       -0.117153    0.651511    0.824288
      3          6           0        1.178570   -1.234850   -0.413875
      4          6           0       -0.370977    1.434658   -0.458331
      5          8           0        2.538566   -0.926396    0.003903
      6          8           0       -0.771955    2.760872   -0.180033
      7          1           0       -0.952885   -1.298114    0.099154
      8          1           0        0.258911   -1.382773    1.542864
      9          1           0       -0.995255    0.754880    1.466046
     10          1           0        0.720711    1.109942    1.364923
     11          1           0        1.187893   -2.315593   -0.540090
     12          1           0        1.022037   -0.752819   -1.376843
     13          1           0       -1.191413    0.977625   -1.012441
     14          1           0        0.520504    1.427379   -1.091068
     15          8           0        2.778936    0.344105   -0.052050
     16          1           0       -0.023706    3.242956    0.177438
     17          8           0       -2.874506   -0.661349    0.001524
     18          8           0       -1.976867   -1.638444   -0.378657
     19          1           0       -3.304976   -1.037617    0.779146
 ---------------------------------------------------------------------

 The electronic state is 3-A.
 Alpha  occ. eigenvalues --  -19.76042 -19.71078 -19.70797 -19.70637 -19.62321
 Alpha  occ. eigenvalues --  -10.61977 -10.58377 -10.58091 -10.55040  -1.35579
 Alpha  occ. eigenvalues --   -1.29492  -1.14842  -1.01808  -1.00831  -0.91826
 Alpha  occ. eigenvalues --   -0.82285  -0.75543  -0.69411  -0.65109  -0.63162
 Alpha  occ. eigenvalues --   -0.61932  -0.60457  -0.60008  -0.58827  -0.54627
 Alpha  occ. eigenvalues --   -0.54237  -0.51921  -0.51138  -0.47862  -0.45255
 Alpha  occ. eigenvalues --   -0.44730  -0.42598  -0.40216  -0.39635  -0.38309
 Alpha  occ. eigenvalues --   -0.37499  -0.35237  -0.31180
 Alpha virt. eigenvalues --    0.00655   0.01677   0.01987   0.03082   0.04693
 Alpha virt. eigenvalues --    0.05074   0.05424   0.06598   0.07884   0.09413
 Alpha virt. eigenvalues --    0.09726   0.10148   0.10769   0.11561   0.12582

  Beta  occ. eigenvalues --  -19.75081 -19.70866 -19.69849 -19.69242 -19.62322
  Beta  occ. eigenvalues --  -10.62027 -10.58372 -10.57609 -10.55056  -1.32089
  Beta  occ. eigenvalues --   -1.27715  -1.14841  -0.98853  -0.97552  -0.90141
  Beta  occ. eigenvalues --   -0.80996  -0.74692  -0.67914  -0.63125  -0.60697
  Beta  occ. eigenvalues --   -0.60251  -0.58764  -0.57358  -0.54526  -0.53055
  Beta  occ. eigenvalues --   -0.52323  -0.50777  -0.48929  -0.45947  -0.44424
  Beta  occ. eigenvalues --   -0.42767  -0.40283  -0.38695  -0.37652  -0.35418
  Beta  occ. eigenvalues --   -0.34685
  Beta virt. eigenvalues --   -0.10939  -0.06545   0.00732   0.01777   0.01946
  Beta virt. eigenvalues --    0.03157   0.04999   0.05097   0.05558   0.06656
  Beta virt. eigenvalues --    0.07944   0.09509   0.10033   0.10210   0.10942

 Mulliken atomic charges:
              1
     1  C   -0.489169
     2  C   -0.404408
     3  C   -0.275316
     4  C   -0.167837
     5  O    0.026306
     6  O   -0.373927
     7  H    0.436495
     8  H    0.203043
     9  H    0.222586
    10  H    0.205623
    11  H    0.176837
    12  H    0.207161
    13  H    0.194431
    14  H    0.166595
    15  O   -0.159687
    16  H    0.249295
    17  O   -0.161017
    18  O   -0.308562
    19  H    0.251552
 Sum of Mulliken atomic charges =   0.00000

 Dipole moment (field-independent basis, Debye):
    X=             -0.3933    Y=             -1.7385    Z=              1.8925  Tot=              2.5997
 Quadrupole moment (field-independent basis, Debye-Ang):
   XX=            -62.2858   YY=            -55.0226   ZZ=            -51.9105
   XY=              4.0848   XZ=             -6.7498   YZ=              0.1141

 Normal termination of Gaussian 09 at Sat Aug 12 03:37:35 2017.
