 Gaussian 09, Revision B.01,
 Gaussian 09:  EM64L-G09RevB.01 12-Aug-2010

 ----------------------------------------------------------------------
 # m062x/6-311+g(2df,2p) irc=(calcall,report=read) geom=allcheck guess=
 check nosymm
 ----------------------------------------------------------------------

 [O]O+[O]OC=O_OO+[O]O[C]=O
 -------------------------
 Redundant internal coordinates taken from checkpoint file:
 /gss_gpfs_scratch/harms.n/QMscratch/[O]O+[O]OC=O_OO+[O]O[C]=O.chk
 Charge =  0 Multiplicity = 3

 SCF Done:  E(UM062X) =  -415.087912458     A.U. after    1 cycles
 SCF Done:  E(UM062X) =  -415.088804394     A.U. after   17 cycles
 SCF Done:  E(UM062X) =  -415.091602943     A.U. after   21 cycles
 SCF Done:  E(UM062X) =  -415.095704329     A.U. after   21 cycles
 SCF Done:  E(UM062X) =  -415.099877727     A.U. after   21 cycles
 SCF Done:  E(UM062X) =  -415.103046742     A.U. after   21 cycles
 SCF Done:  E(UM062X) =  -415.104984388     A.U. after   20 cycles
 SCF Done:  E(UM062X) =  -415.106399395     A.U. after   20 cycles
 SCF Done:  E(UM062X) =  -415.107598273     A.U. after   19 cycles
 SCF Done:  E(UM062X) =  -415.108662731     A.U. after   19 cycles
 SCF Done:  E(UM062X) =  -415.088614578     A.U. after   22 cycles
 SCF Done:  E(UM062X) =  -415.090015944     A.U. after   19 cycles
 SCF Done:  E(UM062X) =  -415.091049907     A.U. after   18 cycles
 SCF Done:  E(UM062X) =  -415.091843300     A.U. after   18 cycles
 SCF Done:  E(UM062X) =  -415.092514572     A.U. after   18 cycles
 SCF Done:  E(UM062X) =  -415.093113829     A.U. after   17 cycles
 SCF Done:  E(UM062X) =  -415.093659234     A.U. after   17 cycles
 SCF Done:  E(UM062X) =  -415.094162951     A.U. after   17 cycles
 SCF Done:  E(UM062X) =  -415.094633523     A.U. after   17 cycles
 SCF Done:  E(UM062X) =  -415.095077596     A.U. after   17 cycles

                          Input orientation:
 ---------------------------------------------------------------------
 Center     Atomic      Atomic             Coordinates (Angstroms)
 Number     Number       Type             X           Y           Z
 ---------------------------------------------------------------------
      1          6           0       -0.546918    0.601170   -0.016505
      2          8           0       -0.806972   -0.753213   -0.183281
      3          8           0       -1.262301    1.478731    0.222900
      4          1           0        1.138024    0.750807   -0.218909
      5          8           0       -2.079389   -1.036491    0.000496
      6          8           0        2.301906   -0.562639    0.463880
      7          8           0        2.040736    0.460335   -0.472021
      8          1           0        2.295455   -1.349809   -0.092020
 ---------------------------------------------------------------------

 Alpha  occ. eigenvalues --  -19.82416 -19.77680 -19.73850 -19.69603 -19.69403
 Alpha  occ. eigenvalues --  -10.73963  -1.41886  -1.29752  -1.27961  -1.08201
 Alpha  occ. eigenvalues --   -1.02406  -0.76350  -0.68281  -0.67890  -0.66532
 Alpha  occ. eigenvalues --   -0.63206  -0.60496  -0.56524  -0.55797  -0.52957
 Alpha  occ. eigenvalues --   -0.46132  -0.44966  -0.41627  -0.39056  -0.35427
 Alpha virt. eigenvalues --   -0.01975   0.01720   0.02765   0.04551   0.05071
 Alpha virt. eigenvalues --    0.07774   0.09752   0.11889   0.15425   0.16276
 Alpha virt. eigenvalues --    0.17120   0.17833   0.18220   0.20078   0.20911

  Beta  occ. eigenvalues --  -19.81632 -19.76019 -19.73199 -19.69591 -19.69096
  Beta  occ. eigenvalues --  -10.73184  -1.38153  -1.27542  -1.27299  -1.02266
  Beta  occ. eigenvalues --   -1.01423  -0.72964  -0.64902  -0.64040  -0.61664
  Beta  occ. eigenvalues --   -0.61260  -0.59303  -0.52431  -0.51625  -0.50959
  Beta  occ. eigenvalues --   -0.42153  -0.40887  -0.37433
  Beta virt. eigenvalues --   -0.13600  -0.13160   0.00792   0.01643   0.02974
  Beta virt. eigenvalues --    0.04798   0.05371   0.07845   0.10878   0.11983
  Beta virt. eigenvalues --    0.15371   0.16138   0.17377   0.17903   0.18994

 Mulliken atomic charges:
              1
     1  C    0.159236
     2  O    0.015057
     3  O   -0.182725
     4  H    0.310324
     5  O   -0.040675
     6  O   -0.210746
     7  O   -0.300152
     8  H    0.249681
 Sum of Mulliken atomic charges =   0.00000

 Dipole moment (field-independent basis, Debye):
    X=             -0.8557    Y=             -1.2014    Z=             -0.6641  Tot=              1.6176
 Quadrupole moment (field-independent basis, Debye-Ang):
   XX=            -39.8913   YY=            -32.4688   ZZ=            -33.3580
   XY=             -3.2329   XZ=             -0.6443   YZ=              0.4463

  Exact polarizability:  57.811  -0.952  41.828  -1.548  -0.385  26.608
 Approx polarizability:  57.150  -2.559  49.476  -2.808  -0.199  32.489

 Normal termination of Gaussian 09 at Thu Aug  3 19:48:00 2017.
