 Gaussian 09, Revision B.01,
 Gaussian 09:  EM64L-G09RevB.01 12-Aug-2010

 ----------------------------------------------------------
 # m062x/6-311+g(2df,2p) Opt=(ModRedun,Loose) Int(Grid=SG1)
 ----------------------------------------------------------

 -------------------
 [O]O+[O]O_OO+[O][O]
 -------------------
 Symbolic Z-matrix:
 Charge =  0 Multiplicity = 3

 SCF Done:  E(UM062X) =  -301.758168310     A.U. after   25 cycles
 SCF Done:  E(UM062X) =  -301.773541896     A.U. after   22 cycles
 SCF Done:  E(UM062X) =  -301.785940469     A.U. after   20 cycles
 SCF Done:  E(UM062X) =  -301.804546197     A.U. after   19 cycles
 SCF Done:  E(UM062X) =  -301.810151354     A.U. after   17 cycles
 SCF Done:  E(UM062X) =  -301.812219448     A.U. after   16 cycles
 SCF Done:  E(UM062X) =  -301.814781443     A.U. after   15 cycles
 SCF Done:  E(UM062X) =  -301.815968581     A.U. after   15 cycles
 SCF Done:  E(UM062X) =  -301.816173775     A.U. after   15 cycles
 SCF Done:  E(UM062X) =  -301.816265539     A.U. after   15 cycles
 SCF Done:  E(UM062X) =  -301.816342437     A.U. after   15 cycles
 SCF Done:  E(UM062X) =  -301.816352832     A.U. after   13 cycles
 Optimization completed.
    -- Stationary point found.

                         Standard orientation:
 ---------------------------------------------------------------------
 Center     Atomic      Atomic             Coordinates (Angstroms)
 Number     Number       Type             X           Y           Z
 ---------------------------------------------------------------------
      1          8           0        1.208416    0.574852   -0.007946
      2          8           0        1.317700   -0.632548    0.013527
      3          1           0        0.044969    0.893381   -0.009183
      4          8           0       -1.213344   -0.652373   -0.130627
      5          8           0       -1.146265    0.720570    0.030785
      6          1           0       -1.377030   -0.977390    0.763263
 ---------------------------------------------------------------------

 The electronic state is 3-A.
 Alpha  occ. eigenvalues --  -19.81369 -19.81056 -19.70611 -19.68088  -1.47599
 Alpha  occ. eigenvalues --   -1.27852  -1.02760  -0.97607  -0.74044  -0.69801
 Alpha  occ. eigenvalues --   -0.67424  -0.62065  -0.55476  -0.52900  -0.46347
 Alpha  occ. eigenvalues --   -0.43330  -0.37781  -0.35606
 Alpha virt. eigenvalues --    0.04388   0.06517   0.10349   0.11717   0.12872
 Alpha virt. eigenvalues --    0.15684   0.17088   0.17804   0.19429   0.20411
 Alpha virt. eigenvalues --    0.23311   0.24108   0.24518   0.26079   0.26573

  Beta  occ. eigenvalues --  -19.79494 -19.78599 -19.70251 -19.67589  -1.41272
  Beta  occ. eigenvalues --   -1.26493  -0.98356  -0.91332  -0.67540  -0.61418
  Beta  occ. eigenvalues --   -0.61017  -0.56852  -0.52731  -0.48593  -0.37464
  Beta  occ. eigenvalues --   -0.35064
  Beta virt. eigenvalues --   -0.11575  -0.09267   0.04864   0.06941   0.10592
  Beta virt. eigenvalues --    0.12252   0.13470   0.16111   0.17475   0.18185
  Beta virt. eigenvalues --    0.20120   0.20937   0.23592   0.24360   0.24762

 Mulliken atomic charges:
              1
     1  O   -0.087232
     2  O    0.023444
     3  H    0.397367
     4  O   -0.149617
     5  O   -0.424911
     6  H    0.240949
 Sum of Mulliken atomic charges =   0.00000

 Dipole moment (field-independent basis, Debye):
    X=              1.2644    Y=             -0.6511    Z=              1.4583  Tot=              2.0369
 Quadrupole moment (field-independent basis, Debye-Ang):
   XX=            -23.8755   YY=            -21.7110   ZZ=            -21.4453
   XY=              2.5644   XZ=             -2.2668   YZ=             -1.8434

 Normal termination of Gaussian 09 at Thu May 11 16:54:37 2017.
