 Gaussian 09, Revision B.01,
 Gaussian 09:  EM64L-G09RevB.01 12-Aug-2010

 --------------------------------------------------------
 # m062x/6-311+g(2df,2p) opt=(ts,calcfc,noeigentest) freq
 --------------------------------------------------------

 ------------------------
 [O]O+[O]OCO_OO+[O]O[CH]O
 ------------------------
 Symbolic Z-matrix:
 Charge =  0 Multiplicity = 3

 SCF Done:  E(UM062X) =  -416.302526815     A.U. after   21 cycles
 Optimization completed.
    -- Stationary point found.
 Normal termination of Gaussian 09 at Fri Aug  4 00:00:53 2017.

 ----------------------------------------------------------------------
 #N Geom=AllCheck Guess=TCheck SCRF=Check GenChk UM062X/6-311+G(2df,2p)
  Freq
 ----------------------------------------------------------------------

 [O]O+[O]OCO_OO+[O]O[CH]O
 ------------------------
 Redundant internal coordinates taken from checkpoint file:
 /gss_gpfs_scratch/harms.n/QMscratch/[O]O+[O]OCO_OO+[O]O[CH]O.chk
 Charge =  0 Multiplicity = 3

                         Standard orientation:
 ---------------------------------------------------------------------
 Center     Atomic      Atomic             Coordinates (Angstroms)
 Number     Number       Type             X           Y           Z
 ---------------------------------------------------------------------
      1          6           0       -0.741034    0.710489    0.501248
      2          8           0       -1.526165   -0.480703    0.303960
      3          8           0       -0.509289    1.401956   -0.617199
      4          1           0        0.466649    0.263228    0.917275
      5          1           0       -1.235113    1.284397    1.279576
      6          8           0       -0.888553   -1.357146   -0.414996
      7          1           0        0.199101    0.965897   -1.122157
      8          8           0        1.793385   -0.157751   -0.525496
      9          8           0        1.569915   -0.122496    0.839838
     10          1           0        1.501224   -1.047331   -0.771035
 ---------------------------------------------------------------------

 SCF Done:  E(UM062X) =  -416.302526815     A.U. after    1 cycles

 The electronic state is 3-A.
 Alpha  occ. eigenvalues --  -19.77455 -19.73205 -19.72143 -19.71303 -19.68819
 Alpha  occ. eigenvalues --  -10.68639  -1.37643  -1.30327  -1.22967  -1.02926
 Alpha  occ. eigenvalues --   -1.01456  -0.79884  -0.70101  -0.66204  -0.64666
 Alpha  occ. eigenvalues --   -0.63736  -0.61298  -0.56109  -0.55260  -0.54276
 Alpha  occ. eigenvalues --   -0.47182  -0.44890  -0.40762  -0.40509  -0.39739
 Alpha  occ. eigenvalues --   -0.32215
 Alpha virt. eigenvalues --    0.01532   0.01802   0.04348   0.04564   0.06966
 Alpha virt. eigenvalues --    0.09777   0.11680   0.15184   0.15942   0.17345
 Alpha virt. eigenvalues --    0.17808   0.18217   0.18580   0.20084   0.20719

  Beta  occ. eigenvalues --  -19.76585 -19.71948 -19.71760 -19.70379 -19.68582
  Beta  occ. eigenvalues --  -10.68087  -1.34211  -1.28614  -1.21831  -0.99528
  Beta  occ. eigenvalues --   -0.97710  -0.77302  -0.67534  -0.63692  -0.62084
  Beta  occ. eigenvalues --   -0.61621  -0.55411  -0.53928  -0.51035  -0.50322
  Beta  occ. eigenvalues --   -0.45204  -0.40294  -0.39035  -0.36655
  Beta virt. eigenvalues --   -0.12389  -0.07381   0.01719   0.01957   0.04552
  Beta virt. eigenvalues --    0.04776   0.07377   0.10255   0.12162   0.15453
  Beta virt. eigenvalues --    0.16394   0.17853   0.18269   0.18651   0.19481

 Mulliken atomic charges:
              1
     1  C   -0.100285
     2  O    0.016852
     3  O   -0.307644
     4  H    0.282881
     5  H    0.185184
     6  O   -0.190708
     7  H    0.308378
     8  O   -0.168342
     9  O   -0.288959
    10  H    0.262644
 Sum of Mulliken atomic charges =   0.00000

 Dipole moment (field-independent basis, Debye):
    X=             -0.4526    Y=              0.2148    Z=             -0.1179  Tot=              0.5146
 Quadrupole moment (field-independent basis, Debye-Ang):
   XX=            -39.4625   YY=            -35.9128   ZZ=            -32.0995
   XY=             -3.6330   XZ=             -4.1423   YZ=              2.7295

  Exact polarizability:  56.492  -7.093  42.429  -1.869   3.283  38.960
 Approx polarizability:  59.638  -9.039  48.588  -3.924   4.211  49.506

 ******    1 imaginary frequencies (negative Signs) ******

                     1                      2                      3
                     A                      A                      A
 Frequencies -- -1927.2616               102.5843               147.8686
 Red. masses --     1.1016                 8.7223                 7.6073
 Frc consts  --     2.4108                 0.0541                 0.0980
 IR Inten    --  1197.9198                 0.4117                12.4259

                     4                      5                      6
                     A                      A                      A
 Frequencies --   162.1657               191.7799               328.3236
 Red. masses --     7.4788                 4.4821                 6.3274
 Frc consts  --     0.1159                 0.0971                 0.4019
 IR Inten    --    10.6036                 5.5024                 8.2347

                     7                      8                      9
                     A                      A                      A
 Frequencies --   410.3814               445.0222               594.4645
 Red. masses --     2.8990                 1.6432                 1.2261
 Frc consts  --     0.2877                 0.1917                 0.2553
 IR Inten    --     9.4307                34.1107               217.4278

                    10                     11                     12
                     A                      A                      A
 Frequencies --   611.3986               661.0604               927.9784
 Red. masses --     3.4510                 3.7881                 4.9314
 Frc consts  --     0.7601                 0.9753                 2.5020
 IR Inten    --     8.1823                30.5218                97.1960

                    13                     14                     15
                     A                      A                      A
 Frequencies --  1066.0383              1078.0586              1126.6493
 Red. masses --     1.4500                 8.9009                 1.0883
 Frc consts  --     0.9708                 6.0949                 0.8139
 IR Inten    --    82.9818                17.9031                19.9936

                    16                     17                     18
                     A                      A                      A
 Frequencies --  1228.6985              1262.4165              1358.2304
 Red. masses --     2.5750                 5.9082                 1.9563
 Frc consts  --     2.2904                 5.5477                 2.1263
 IR Inten    --    52.5476               149.1621                15.1200

                    19                     20                     21
                     A                      A                      A
 Frequencies --  1403.0105              1445.8417              1589.5267
 Red. masses --     1.2347                 1.1069                 1.0496
 Frc consts  --     1.4319                 1.3634                 1.5624
 IR Inten    --    80.9155                51.2335                 7.7350

                    22                     23                     24
                     A                      A                      A
 Frequencies --  3191.6753              3688.2927              3772.4281
 Red. masses --     1.0881                 1.0647                 1.0673
 Frc consts  --     6.5307                 8.5335                 8.9487
 IR Inten    --     5.0219                89.6544                61.4598

 - Thermochemistry -
 -------------------
 Temperature   298.150 Kelvin.  Pressure   1.00000 Atm.
 Atom     1 has atomic number  6 and mass  12.00000

 Molecular mass:    96.00587 amu.
 Principal axes and moments of inertia in atomic units:
                           1         2         3
     Eigenvalues --   386.75897 674.85903 823.87573
           X            0.99921  -0.03351  -0.02140
           Y            0.03434   0.99862   0.03967
           Z            0.02004  -0.04037   0.99898
 This molecule is an asymmetric top.
 Rotational symmetry number  1.
 Rotational temperatures (Kelvin)      0.22395     0.12834     0.10513
 Rotational constants (GHZ):           4.66632     2.67425     2.19055
    1 imaginary frequencies ignored.
 Zero-point vibrational energy     160263.1 (Joules/Mol)
                                   38.30379 (Kcal/Mol)
 Warning -- explicit consideration of   9 degrees of freedom as
           vibrations may cause significant error
 Vibrational temperatures:    147.60   212.75   233.32   275.93   472.38
          (Kelvin)            590.45   640.29   855.30   879.67   951.12
                             1335.15  1533.79  1551.08  1621.00  1767.82
                             1816.33  1954.19  2018.62  2080.24  2286.97
                             4592.10  5306.62  5427.68

 Zero-point correction=                           0.061041 (Hartree/Particle)
 Thermal correction to Energy=                    0.068026
 Thermal correction to Enthalpy=                  0.068971
 Thermal correction to Gibbs Free Energy=         0.028971
 Sum of electronic and zero-point Energies=           -416.241486
 Sum of electronic and thermal Energies=              -416.234500
 Sum of electronic and thermal Enthalpies=            -416.233556
 Sum of electronic and thermal Free Energies=         -416.273556

                     E (Thermal)             CV                S
                      KCal/Mol        Cal/Mol-Kelvin    Cal/Mol-Kelvin
 Total                   42.687             23.006             84.187
 Electronic               0.000              0.000              2.183
 Translational            0.889              2.981             39.597
 Rotational               0.889              2.981             26.867
 Vibrational             40.910             17.044             15.540
 Vibration     1          0.605              1.947              3.405
 Vibration     2          0.617              1.905              2.699
 Vibration     3          0.622              1.889              2.524
 Vibration     4          0.634              1.851              2.211
 Vibration     5          0.712              1.619              1.268
 Vibration     6          0.775              1.448              0.925
 Vibration     7          0.804              1.372              0.811
 Vibration     8          0.952              1.044              0.459
 Vibration     9          0.971              1.008              0.430

 Optimization completed.
    -- Stationary point found.
 Normal termination of Gaussian 09 at Fri Aug  4 00:10:49 2017.
