 Gaussian 09, Revision B.01,
 Gaussian 09:  EM64L-G09RevB.01 12-Aug-2010

 --------------------------------------------------------
 # m062x/6-311+g(2df,2p) opt=(ts,calcfc,noeigentest) freq
 --------------------------------------------------------

 ------------------
 [OH]+[O]O_O+[O][O]
 ------------------
 Symbolic Z-matrix:
 Charge =  0 Multiplicity = 3

 SCF Done:  E(UM062X) =  -226.631752565     A.U. after   95 cycles
 SCF Done:  E(UM062X) =  -226.632959740     A.U. after   51 cycles
 SCF Done:  E(UM062X) =  -226.634066962     A.U. after   41 cycles
 SCF Done:  E(UM062X) =  -226.633708577     A.U. after   38 cycles
 SCF Done:  E(UM062X) =  -226.634569525     A.U. after   85 cycles
 SCF Done:  E(UM062X) =  -226.632256748     A.U. after   48 cycles
 SCF Done:  E(UM062X) =  -226.632932393     A.U. after   55 cycles
 SCF Done:  E(UM062X) =  -226.633582261     A.U. after   99 cycles
 SCF Done:  E(UM062X) =  -226.633776528     A.U. after   50 cycles
 SCF Done:  E(UM062X) =  -226.633950799     A.U. after   54 cycles
 SCF Done:  E(UM062X) =  -226.633864758     A.U. after   49 cycles
 SCF Done:  E(UM062X) =  -226.633942458     A.U. after   57 cycles
 SCF Done:  E(UM062X) =  -226.633952117     A.U. after   28 cycles
 SCF Done:  E(UM062X) =  -226.633953752     A.U. after   25 cycles
 Optimization completed.
    -- Stationary point found.
 Normal termination of Gaussian 09 at Mon Jul 31 10:58:38 2017.

 ----------------------------------------------------------------------
 #N Geom=AllCheck Guess=TCheck SCRF=Check GenChk UM062X/6-311+G(2df,2p)
  Freq
 ----------------------------------------------------------------------

 [OH]+[O]O_O+[O][O]
 ------------------
 Redundant internal coordinates taken from checkpoint file:
 /gss_gpfs_scratch/harms.n/QMscratch/[OH]+[O]O_O+[O][O].chk
 Charge =  0 Multiplicity = 3

                         Standard orientation:
 ---------------------------------------------------------------------
 Center     Atomic      Atomic             Coordinates (Angstroms)
 Number     Number       Type             X           Y           Z
 ---------------------------------------------------------------------
      1          8           0        0.740444   -0.638298   -0.000067
      2          8           0        1.187789    0.568803   -0.000004
      3          1           0       -0.266208   -0.596671    0.000942
      4          8           0       -1.705192    0.022029   -0.000079
      5          1           0       -1.518128    0.976396    0.000255
 ---------------------------------------------------------------------

 SCF Done:  E(UM062X) =  -226.633953752     A.U. after    1 cycles

 The electronic state is 3-A.
 Alpha  occ. eigenvalues --  -19.76952 -19.72493 -19.72247  -1.37258  -1.17956
 Alpha  occ. eigenvalues --   -0.99782  -0.68945  -0.62050  -0.60112  -0.59544
 Alpha  occ. eigenvalues --   -0.53123  -0.47338  -0.39672  -0.39606
 Alpha virt. eigenvalues --    0.04708   0.08028   0.11968   0.12905   0.15680
 Alpha virt. eigenvalues --    0.16564   0.18302   0.19573   0.21883   0.22333
 Alpha virt. eigenvalues --    0.23726   0.25776   0.28358   0.32071   0.35971

  Beta  occ. eigenvalues --  -19.75818 -19.70950 -19.70832  -1.33178  -1.10817
  Beta  occ. eigenvalues --   -0.94185  -0.64715  -0.57071  -0.56310  -0.51286
  Beta  occ. eigenvalues --   -0.43912  -0.36015
  Beta virt. eigenvalues --   -0.16081  -0.07446   0.05057   0.08611   0.12118
  Beta virt. eigenvalues --    0.13741   0.15970   0.16276   0.18847   0.20013
  Beta virt. eigenvalues --    0.22398   0.22530   0.24317   0.27406   0.30533

 Mulliken atomic charges:
              1
     1  O   -0.140985
     2  O   -0.173782
     3  H    0.373272
     4  O   -0.335748
     5  H    0.277243
 Sum of Mulliken atomic charges =   0.00000

 Dipole moment (field-independent basis, Debye):
    X=             -1.5340    Y=              0.8462    Z=              0.0016  Tot=              1.7519
 Quadrupole moment (field-independent basis, Debye-Ang):
   XX=            -19.4306   YY=            -15.7777   ZZ=            -17.7987
   XY=             -2.6232   XZ=              0.0036   YZ=             -0.0013

  Exact polarizability:  52.776   1.205  20.928  -0.002   0.002  14.712
 Approx polarizability:  36.387   3.694  25.067  -0.001   0.000  13.785

 ******    2 imaginary frequencies (negative Signs) ******

                     1                      2                      3
                     A                      A                      A
 Frequencies --  -945.9481              -685.2852               113.4147
 Red. masses --     1.0563                 3.3902                 3.5438
 Frc consts  --     0.5569                 0.9380                 0.0269
 IR Inten    --   351.0686               796.3783                34.8732

                     4                      5                      6
                     A                      A                      A
 Frequencies --   170.5816               444.8335              1187.0459
 Red. masses --     1.1457                 1.3088                11.1685
 Frc consts  --     0.0196                 0.1526                 9.2722
 IR Inten    --   138.8975               277.2392               505.8843

                     7                      8                      9
                     A                      A                      A
 Frequencies --  1485.7877              2365.2871              3763.6285
 Red. masses --     1.2171                 1.1719                 1.0666
 Frc consts  --     1.5830                 3.8629                 8.9013
 IR Inten    --   126.1466              1858.3103                56.9394

 - Thermochemistry -
 -------------------
 Temperature   298.150 Kelvin.  Pressure   1.00000 Atm.
 Atom     1 has atomic number  8 and mass  15.99491

 Molecular mass:    50.00039 amu.
 Principal axes and moments of inertia in atomic units:
                           1         2         3
     Eigenvalues --    46.38830 286.40454 332.79283
           X            0.99981  -0.01973  -0.00001
           Y            0.01973   0.99981  -0.00002
           Z            0.00001   0.00002   1.00000
 This molecule is an asymmetric top.
 Rotational symmetry number  1.
 Rotational temperatures (Kelvin)      1.86715     0.30242     0.26026
 Rotational constants (GHZ):          38.90509     6.30137     5.42302
    2 imaginary frequencies ignored.
 Zero-point vibrational energy      57005.5 (Joules/Mol)
                                   13.62465 (Kcal/Mol)
 Warning -- explicit consideration of   3 degrees of freedom as
           vibrations may cause significant error
 Vibrational temperatures:    163.18   245.43   640.02  1707.89  2137.71
          (Kelvin)           3403.12  5415.02

 Zero-point correction=                           0.021712 (Hartree/Particle)
 Thermal correction to Energy=                    0.026154
 Thermal correction to Enthalpy=                  0.027098
 Thermal correction to Gibbs Free Energy=        -0.005852
 Sum of electronic and zero-point Energies=           -226.612241
 Sum of electronic and thermal Energies=              -226.607800
 Sum of electronic and thermal Enthalpies=            -226.606856
 Sum of electronic and thermal Free Energies=         -226.639806

                     E (Thermal)             CV                S
                      KCal/Mol        Cal/Mol-Kelvin    Cal/Mol-Kelvin
 Total                   16.412             11.446             69.349
 Electronic               0.000              0.000              2.183
 Translational            0.889              2.981             37.652
 Rotational               0.889              2.981             23.007
 Vibrational             14.634              5.484              6.507
 Vibration     1          0.607              1.938              3.210
 Vibration     2          0.626              1.879              2.429
 Vibration     3          0.804              1.372              0.812

 Optimization completed.
    -- Stationary point found.
 Normal termination of Gaussian 09 at Mon Jul 31 11:00:32 2017.
