 Gaussian 09, Revision B.01,
 Gaussian 09:  EM64L-G09RevB.01 12-Aug-2010

 ---------------------------------------------------
 # m062x/6-311+g(2df,2p) opt=(ts,calcfc,noeigentest)
 ---------------------------------------------------

 ------------------------------------
 [OH]+[O]C1C=CC=CC=1_OC1C=CC=CC=1+[O]
 ------------------------------------
 Symbolic Z-matrix:
 Charge =  0 Multiplicity = 3

 SCF Done:  E(UM062X) =  -382.499030839     A.U. after   49 cycles

  Exact polarizability:   0.000   0.000   0.000   0.000   0.000   0.000
 Approx polarizability: 189.959  -4.503 108.581  -3.164   1.660  69.748

 SCF Done:  E(UM062X) =  -382.494284704     A.U. after   32 cycles
 SCF Done:  E(UM062X) =  -382.494970667     A.U. after   33 cycles
 SCF Done:  E(UM062X) =  -382.495146447     A.U. after   29 cycles
 SCF Done:  E(UM062X) =  -382.495158999     A.U. after   28 cycles
 SCF Done:  E(UM062X) =  -382.495162853     A.U. after   25 cycles
 SCF Done:  E(UM062X) =  -382.495166133     A.U. after   26 cycles
 SCF Done:  E(UM062X) =  -382.495166574     A.U. after   23 cycles
 SCF Done:  E(UM062X) =  -382.495166671     A.U. after   26 cycles
 Optimization completed.
    -- Stationary point found.

                         Standard orientation:
 ---------------------------------------------------------------------
 Center     Atomic      Atomic             Coordinates (Angstroms)
 Number     Number       Type             X           Y           Z
 ---------------------------------------------------------------------
      1          8           0       -2.974078    0.547449    0.721814
      2          1           0       -2.354349   -0.139971   -0.206442
      3          6           0       -0.398798   -0.392160   -0.288788
      4          6           0        0.590848   -1.317630    0.076243
      5          6           0        1.879783   -0.883490    0.303887
      6          6           0        2.191942    0.471701    0.207205
      7          6           0        1.207467    1.394896   -0.133048
      8          6           0       -0.082317    0.974007   -0.390272
      9          8           0       -1.617940   -0.836625   -0.558702
     10          1           0        0.312967   -2.358910    0.159155
     11          1           0        2.648671   -1.595740    0.569607
     12          1           0        3.201803    0.807116    0.398372
     13          1           0        1.453504    2.445251   -0.205158
     14          1           0       -0.860004    1.671710   -0.671787
 ---------------------------------------------------------------------

 The electronic state is 3-A.
 Alpha  occ. eigenvalues --  -19.70407 -19.67360 -10.62544 -10.56824 -10.56667
 Alpha  occ. eigenvalues --  -10.56552 -10.56534 -10.56415  -1.21183  -1.10543
 Alpha  occ. eigenvalues --   -0.98201  -0.87350  -0.85479  -0.72846  -0.71047
 Alpha  occ. eigenvalues --   -0.64884  -0.60541  -0.56702  -0.55025  -0.52689
 Alpha  occ. eigenvalues --   -0.51637  -0.49996  -0.49122  -0.46013  -0.44924
 Alpha  occ. eigenvalues --   -0.44202  -0.43808  -0.39872  -0.33762  -0.30702
 Alpha virt. eigenvalues --   -0.00345   0.00741   0.00839   0.02145   0.02814
 Alpha virt. eigenvalues --    0.04538   0.04709   0.06259   0.07318   0.08638
 Alpha virt. eigenvalues --    0.08729   0.09151   0.09896   0.12891   0.13146

  Beta  occ. eigenvalues --  -19.67664 -19.66762 -10.62571 -10.56750 -10.56626
  Beta  occ. eigenvalues --  -10.56573 -10.56543 -10.56360  -1.19118  -0.98384
  Beta  occ. eigenvalues --   -0.96984  -0.87214  -0.84866  -0.72364  -0.70501
  Beta  occ. eigenvalues --   -0.63436  -0.59242  -0.56308  -0.53078  -0.51515
  Beta  occ. eigenvalues --   -0.50876  -0.46918  -0.44615  -0.43112  -0.40952
  Beta  occ. eigenvalues --   -0.37139  -0.33402  -0.29487
  Beta virt. eigenvalues --   -0.15569  -0.08759   0.00270   0.00853   0.01761
  Beta virt. eigenvalues --    0.02185   0.02928   0.04703   0.04847   0.06178
  Beta virt. eigenvalues --    0.07419   0.08678   0.08950   0.09206   0.09955

 Mulliken atomic charges:
              1
     1  O   -0.214561
     2  H    0.302771
     3  C   -0.334367
     4  C    0.163151
     5  C   -0.232583
     6  C   -0.108069
     7  C   -0.276290
     8  C    0.201864
     9  O   -0.296932
    10  H    0.165893
    11  H    0.152449
    12  H    0.154023
    13  H    0.152510
    14  H    0.170139
 Sum of Mulliken atomic charges =   0.00000

 Dipole moment (field-independent basis, Debye):
    X=              3.0914    Y=              0.4586    Z=             -0.3859  Tot=              3.1490
 Quadrupole moment (field-independent basis, Debye-Ang):
   XX=            -47.2793   YY=            -42.5807   ZZ=            -50.7960
   XY=             -0.2943   XZ=              3.5614   YZ=             -2.0929

 Normal termination of Gaussian 09 at Sun Aug 20 04:10:05 2017.
