 Gaussian 09, Revision B.01,
 Gaussian 09:  EM64L-G09RevB.01 12-Aug-2010

 ----------------------------------------------------------------------
 # m062x/6-311+g(2df,2p) irc=(calcall,report=read) geom=allcheck guess=
 check nosymm
 ----------------------------------------------------------------------

 [OH]+[O]OC=O_O=COO+[O]
 ----------------------
 Redundant internal coordinates taken from checkpoint file:
 /gss_gpfs_scratch/harms.n/QMscratch/[OH]+[O]OC=O_O=COO+[O].chk
 Charge =  0 Multiplicity = 3

 SCF Done:  E(UM062X) =  -339.927059057     A.U. after   12 cycles
 SCF Done:  E(UM062X) =  -339.928029083     A.U. after   24 cycles
 SCF Done:  E(UM062X) =  -339.930784193     A.U. after   24 cycles
 SCF Done:  E(UM062X) =  -339.934282790     A.U. after   23 cycles
 SCF Done:  E(UM062X) =  -339.937146217     A.U. after   22 cycles
 SCF Done:  E(UM062X) =  -339.939209327     A.U. after   22 cycles
 SCF Done:  E(UM062X) =  -339.940989273     A.U. after   21 cycles
 SCF Done:  E(UM062X) =  -339.942619909     A.U. after   21 cycles
 SCF Done:  E(UM062X) =  -339.944114859     A.U. after   21 cycles
 SCF Done:  E(UM062X) =  -339.945491363     A.U. after   21 cycles
 SCF Done:  E(UM062X) =  -339.930873998     A.U. after   22 cycles
 SCF Done:  E(UM062X) =  -339.930899891     A.U. after   21 cycles
 SCF Done:  E(UM062X) =  -339.932302255     A.U. after   23 cycles
 SCF Done:  E(UM062X) =  -339.933534374     A.U. after   23 cycles
 SCF Done:  E(UM062X) =  -339.933605762     A.U. after   22 cycles
 SCF Done:  E(UM062X) =  -339.934926261     A.U. after   23 cycles
 SCF Done:  E(UM062X) =  -339.936197687     A.U. after   22 cycles
 SCF Done:  E(UM062X) =  -339.937424446     A.U. after   22 cycles
 SCF Done:  E(UM062X) =  -339.938615451     A.U. after   23 cycles
 SCF Done:  E(UM062X) =  -339.939778138     A.U. after   23 cycles

                          Input orientation:
 ---------------------------------------------------------------------
 Center     Atomic      Atomic             Coordinates (Angstroms)
 Number     Number       Type             X           Y           Z
 ---------------------------------------------------------------------
      1          8           0       -1.860213   -0.691292   -0.352305
      2          1           0       -0.919804    0.211931    0.556117
      3          6           0        1.206641   -0.240832   -0.223417
      4          8           0        0.604231    0.949000   -0.341320
      5          8           0        0.785262   -1.173116    0.386835
      6          1           0        2.129926   -0.206161   -0.811384
      7          8           0       -0.510796    1.095726    0.490490
 ---------------------------------------------------------------------

 Alpha  occ. eigenvalues --  -19.78773 -19.75168 -19.71436 -19.65785 -10.70364
 Alpha  occ. eigenvalues --   -1.34091  -1.21352  -1.18101  -1.07866  -0.76907
 Alpha  occ. eigenvalues --   -0.67586  -0.62400  -0.60311  -0.57842  -0.56989
 Alpha  occ. eigenvalues --   -0.52777  -0.52465  -0.49371  -0.46561  -0.40419
 Alpha  occ. eigenvalues --   -0.38701
 Alpha virt. eigenvalues --    0.00959   0.01756   0.03449   0.04996   0.06055
 Alpha virt. eigenvalues --    0.06762   0.13287   0.14987   0.16203   0.18025
 Alpha virt. eigenvalues --    0.18739   0.19666   0.22330   0.22819   0.23871

  Beta  occ. eigenvalues --  -19.75223 -19.75173 -19.71233 -19.65726 -10.70366
  Beta  occ. eigenvalues --   -1.33845  -1.21137  -1.08188  -0.99810  -0.76512
  Beta  occ. eigenvalues --   -0.66951  -0.61376  -0.59811  -0.52466  -0.51523
  Beta  occ. eigenvalues --   -0.46929  -0.43555  -0.40265  -0.38340
  Beta virt. eigenvalues --   -0.13710  -0.12995   0.01022   0.01758   0.03390
  Beta virt. eigenvalues --    0.04973   0.06024   0.07076   0.12550   0.15244
  Beta virt. eigenvalues --    0.16228   0.18023   0.18875   0.19733   0.22104

 Mulliken atomic charges:
              1
     1  O    0.004004
     2  H    0.287452
     3  C    0.197094
     4  O   -0.061893
     5  O   -0.379515
     6  H    0.159543
     7  O   -0.206684
 Sum of Mulliken atomic charges =   0.00000

 Dipole moment (field-independent basis, Debye):
    X=              0.5752    Y=             -0.2657    Z=             -1.0136  Tot=              1.1953
 Quadrupole moment (field-independent basis, Debye-Ang):
   XX=            -22.1577   YY=            -32.6671   ZZ=            -28.2562
   XY=              1.4688   XZ=             -2.2878   YZ=              0.9074

  Exact polarizability:  41.346   2.634  34.937  -2.322  -0.192  25.507
 Approx polarizability:  39.153   1.618  41.589  -4.056  -2.317  30.656

 Normal termination of Gaussian 09 at Tue Aug  1 09:53:37 2017.
