 Gaussian 09, Revision B.01,
 Gaussian 09:  EM64L-G09RevB.01 12-Aug-2010

 ----------------------------------------------------------------------
 # m062x/6-311+g(2df,2p) irc=(calcall,report=read) geom=allcheck guess=
 check nosymm
 ----------------------------------------------------------------------

 [OH]+[O]C1C=CC=CC=1_OC1C=CC=CC=1+[O]
 ------------------------------------
 Redundant internal coordinates taken from checkpoint file:
 /gss_gpfs_scratch/harms.n/QMscratch/[OH]+[O]C1C=CC=CC=1_OC1C=CC=CC=1+[O].chk
 Charge =  0 Multiplicity = 3

 SCF Done:  E(UM062X) =  -382.495166736     A.U. after    3 cycles
 SCF Done:  E(UM062X) =  -382.495738030     A.U. after   29 cycles
 SCF Done:  E(UM062X) =  -382.495761270     A.U. after   26 cycles
 SCF Done:  E(UM062X) =  -382.496864919     A.U. after   30 cycles
 SCF Done:  E(UM062X) =  -382.496898014     A.U. after   27 cycles
 SCF Done:  E(UM062X) =  -382.498169303     A.U. after   27 cycles
 SCF Done:  E(UM062X) =  -382.499510339     A.U. after   25 cycles
 SCF Done:  E(UM062X) =  -382.500840222     A.U. after   26 cycles
 SCF Done:  E(UM062X) =  -382.502132410     A.U. after   26 cycles
 SCF Done:  E(UM062X) =  -382.503356009     A.U. after   26 cycles
 SCF Done:  E(UM062X) =  -382.496187845     A.U. after   39 cycles
 SCF Done:  E(UM062X) =  -382.499642043     A.U. after   42 cycles
 SCF Done:  E(UM062X) =  -382.504878843     A.U. after   41 cycles
 SCF Done:  E(UM062X) =  -382.510433065     A.U. after   31 cycles
 SCF Done:  E(UM062X) =  -382.515065348     A.U. after   40 cycles
 SCF Done:  E(UM062X) =  -382.518057730     A.U. after   29 cycles
 SCF Done:  E(UM062X) =  -382.519978919     A.U. after   26 cycles
 SCF Done:  E(UM062X) =  -382.521498094     A.U. after   26 cycles
 SCF Done:  E(UM062X) =  -382.522769974     A.U. after   25 cycles
 SCF Done:  E(UM062X) =  -382.523860122     A.U. after   24 cycles

                          Input orientation:
 ---------------------------------------------------------------------
 Center     Atomic      Atomic             Coordinates (Angstroms)
 Number     Number       Type             X           Y           Z
 ---------------------------------------------------------------------
      1          8           0       -2.946837    0.572673    0.731727
      2          1           0       -2.610214    0.044448   -0.028827
      3          6           0       -0.389076   -0.403001   -0.300871
      4          6           0        0.645823   -1.320971    0.080372
      5          6           0        1.919539   -0.885720    0.307510
      6          6           0        2.229808    0.478493    0.207331
      7          6           0        1.238628    1.407294   -0.135993
      8          6           0       -0.042581    0.994441   -0.389608
      9          8           0       -1.530451   -0.841793   -0.572975
     10          1           0        0.365542   -2.362121    0.157603
     11          1           0        2.694478   -1.590689    0.574115
     12          1           0        3.239633    0.814852    0.398018
     13          1           0        1.491616    2.456047   -0.206150
     14          1           0       -0.826950    1.687354   -0.660710
 ---------------------------------------------------------------------

 Alpha  occ. eigenvalues --  -19.64658 -19.63058 -10.63770 -10.59704 -10.58225
 Alpha  occ. eigenvalues --  -10.58042 -10.57924 -10.57901  -1.19671  -1.08708
 Alpha  occ. eigenvalues --   -0.99426  -0.88953  -0.85889  -0.73286  -0.71066
 Alpha  occ. eigenvalues --   -0.63104  -0.59449  -0.57748  -0.55037  -0.53219
 Alpha  occ. eigenvalues --   -0.53028  -0.49784  -0.46615  -0.45803  -0.45397
 Alpha  occ. eigenvalues --   -0.43974  -0.39151  -0.36642  -0.35721  -0.30646
 Alpha virt. eigenvalues --   -0.01461  -0.00155   0.00098   0.01664   0.02549
 Alpha virt. eigenvalues --    0.04485   0.04559   0.05686   0.07051   0.08150
 Alpha virt. eigenvalues --    0.08348   0.08953   0.09698   0.12312   0.12917

  Beta  occ. eigenvalues --  -19.63926 -19.61454 -10.63832 -10.59487 -10.58095
  Beta  occ. eigenvalues --  -10.58023 -10.57995 -10.57864  -1.17571  -1.00574
  Beta  occ. eigenvalues --   -0.98658  -0.88656  -0.84587  -0.72880  -0.70515
  Beta  occ. eigenvalues --   -0.62402  -0.58247  -0.57066  -0.53294  -0.52861
  Beta  occ. eigenvalues --   -0.50434  -0.47522  -0.46055  -0.44599  -0.40241
  Beta  occ. eigenvalues --   -0.35749  -0.34998  -0.34441
  Beta virt. eigenvalues --   -0.13707  -0.05790  -0.00043   0.00188   0.01682
  Beta virt. eigenvalues --    0.02444   0.02772   0.04499   0.04639   0.05289
  Beta virt. eigenvalues --    0.07066   0.08086   0.08379   0.08820   0.09617

 Mulliken atomic charges:
              1
     1  O   -0.326072
     2  H    0.282331
     3  C   -0.289354
     4  C    0.241597
     5  C   -0.292328
     6  C   -0.036707
     7  C   -0.368843
     8  C    0.303516
     9  O   -0.363293
    10  H    0.175765
    11  H    0.157105
    12  H    0.171404
    13  H    0.158649
    14  H    0.186230
 Sum of Mulliken atomic charges =   0.00000

 Dipole moment (field-independent basis, Debye):
    X=              5.6809    Y=              0.2864    Z=             -0.8087  Tot=              5.7453
 Quadrupole moment (field-independent basis, Debye-Ang):
   XX=            -50.4746   YY=            -42.4396   ZZ=            -50.2808
   XY=              0.8522   XZ=              5.4181   YZ=             -2.8388

  Exact polarizability: 109.037   4.571  81.661   7.212  -1.943  49.970
 Approx polarizability: 131.149   9.785 102.717  12.061  -1.167  65.867

 Normal termination of Gaussian 09 at Mon Aug 21 05:16:34 2017.
