 Gaussian 09, Revision B.01,
 Gaussian 09:  EM64L-G09RevB.01 12-Aug-2010

 --------------------------------------------------------
 # m062x/6-311+g(2df,2p) opt=(ts,calcfc,noeigentest) freq
 --------------------------------------------------------

 ----------------------
 [OH]+[O]OC=O_O=COO+[O]
 ----------------------
 Symbolic Z-matrix:
 Charge =  0 Multiplicity = 3

 SCF Done:  E(UM062X) =  -339.927046396     A.U. after   29 cycles
 SCF Done:  E(UM062X) =  -339.927016793     A.U. after   25 cycles
 SCF Done:  E(UM062X) =  -339.927055726     A.U. after   23 cycles
 SCF Done:  E(UM062X) =  -339.927057619     A.U. after   22 cycles
 SCF Done:  E(UM062X) =  -339.927057363     A.U. after   21 cycles
 Optimization completed.
    -- Stationary point found.
 Normal termination of Gaussian 09 at Tue Aug  1 07:31:11 2017.

 ----------------------------------------------------------------------
 #N Geom=AllCheck Guess=TCheck SCRF=Check GenChk UM062X/6-311+G(2df,2p)
  Freq
 ----------------------------------------------------------------------

 [OH]+[O]OC=O_O=COO+[O]
 ----------------------
 Redundant internal coordinates taken from checkpoint file:
 /gss_gpfs_scratch/harms.n/QMscratch/[OH]+[O]OC=O_O=COO+[O].chk
 Charge =  0 Multiplicity = 3

                         Standard orientation:
 ---------------------------------------------------------------------
 Center     Atomic      Atomic             Coordinates (Angstroms)
 Number     Number       Type             X           Y           Z
 ---------------------------------------------------------------------
      1          8           0       -1.842230   -0.661826   -0.314346
      2          1           0       -1.200094    0.164651    0.274910
      3          6           0        1.200717   -0.244445   -0.215320
      4          8           0        0.568825    0.961158   -0.328897
      5          8           0        0.783927   -1.168042    0.394401
      6          1           0        2.115838   -0.192061   -0.813125
      7          8           0       -0.525528    1.055470    0.477609
 ---------------------------------------------------------------------

 SCF Done:  E(UM062X) =  -339.927057363     A.U. after    1 cycles

 The electronic state is 3-A.
 Alpha  occ. eigenvalues --  -19.77413 -19.75575 -19.74210 -19.67270 -10.71388
 Alpha  occ. eigenvalues --   -1.37094  -1.23196  -1.16264  -1.07227  -0.77783
 Alpha  occ. eigenvalues --   -0.68965  -0.65176  -0.62096  -0.57280  -0.55548
 Alpha  occ. eigenvalues --   -0.53880  -0.50351  -0.48048  -0.45483  -0.41478
 Alpha  occ. eigenvalues --   -0.40959
 Alpha virt. eigenvalues --   -0.00122   0.01355   0.03637   0.04546   0.05676
 Alpha virt. eigenvalues --    0.07002   0.13918   0.15422   0.15780   0.17609
 Alpha virt. eigenvalues --    0.17882   0.19196   0.22431   0.22970   0.24292

  Beta  occ. eigenvalues --  -19.77229 -19.74650 -19.71434 -19.67168 -10.71404
  Beta  occ. eigenvalues --   -1.35603  -1.22675  -1.07365  -1.00418  -0.76272
  Beta  occ. eigenvalues --   -0.67249  -0.62702  -0.60573  -0.54462  -0.50975
  Beta  occ. eigenvalues --   -0.46748  -0.41914  -0.40881  -0.39144
  Beta virt. eigenvalues --   -0.17057  -0.11304   0.00357   0.01406   0.03780
  Beta virt. eigenvalues --    0.04640   0.05794   0.07710   0.13833   0.15578
  Beta virt. eigenvalues --    0.15956   0.17617   0.18273   0.19444   0.22353

 Mulliken atomic charges:
              1
     1  O   -0.192303
     2  H    0.385531
     3  C    0.209989
     4  O   -0.042980
     5  O   -0.321189
     6  H    0.164267
     7  O   -0.203315
 Sum of Mulliken atomic charges =   0.00000

 Dipole moment (field-independent basis, Debye):
    X=              1.7867    Y=              0.6766    Z=             -0.9629  Tot=              2.1394
 Quadrupole moment (field-independent basis, Debye-Ang):
   XX=            -23.9718   YY=            -31.9201   ZZ=            -28.1715
   XY=             -0.0489   XZ=             -2.1002   YZ=              1.0956

  Exact polarizability:  61.978  16.146  43.181   2.645   3.153  26.692
 Approx polarizability:  52.995  13.349  50.956  -0.349   1.755  32.102

 ******    1 imaginary frequencies (negative Signs) ******

                     1                      2                      3
                     A                      A                      A
 Frequencies -- -2177.0894                48.1991               152.3385
 Red. masses --     1.0818                 7.2766                 6.8895
 Frc consts  --     3.0210                 0.0100                 0.0942
 IR Inten    --  5623.8527                16.3894                 4.6739

                     4                      5                      6
                     A                      A                      A
 Frequencies --   332.5945               367.3505               382.5107
 Red. masses --     6.1942                 2.5892                 2.7196
 Frc consts  --     0.4037                 0.2059                 0.2344
 IR Inten    --    20.5220                28.5296                 7.9590

                     7                      8                      9
                     A                      A                      A
 Frequencies --   820.2609               860.5841               993.6363
 Red. masses --     2.4879                 5.8468                 5.4493
 Frc consts  --     0.9863                 2.5512                 3.1699
 IR Inten    --    53.8650                23.2838                87.8234

                    10                     11                     12
                     A                      A                      A
 Frequencies --  1033.6391              1146.3504              1283.9047
 Red. masses --     1.7002                 4.9872                 1.1891
 Frc consts  --     1.0703                 3.8613                 1.1549
 IR Inten    --    13.0134               225.3681                88.1013

                    13                     14                     15
                     A                      A                      A
 Frequencies --  1386.1354              1886.4597              3141.7094
 Red. masses --     1.1659                 9.1843                 1.0979
 Frc consts  --     1.3199                19.2571                 6.3848
 IR Inten    --     2.6859               202.3069                14.7156

 - Thermochemistry -
 -------------------
 Temperature   298.150 Kelvin.  Pressure   1.00000 Atm.
 Atom     1 has atomic number  8 and mass  15.99491

 Molecular mass:    77.99531 amu.
 Principal axes and moments of inertia in atomic units:
                           1         2         3
     Eigenvalues --   260.29201 384.64424 568.56150
           X            0.99958  -0.01693  -0.02365
           Y            0.01704   0.99985   0.00415
           Z            0.02357  -0.00455   0.99971
 This molecule is an asymmetric top.
 Rotational symmetry number  1.
 Rotational temperatures (Kelvin)      0.33276     0.22518     0.15234
 Rotational constants (GHZ):           6.93353     4.69198     3.17422
    1 imaginary frequencies ignored.
 Zero-point vibrational energy      82755.7 (Joules/Mol)
                                   19.77909 (Kcal/Mol)
 Warning -- explicit consideration of   5 degrees of freedom as
           vibrations may cause significant error
 Vibrational temperatures:     69.35   219.18   478.53   528.53   550.35
          (Kelvin)           1180.17  1238.19  1429.62  1487.17  1649.34
                             1847.25  1994.34  2714.19  4520.21

 Zero-point correction=                           0.031520 (Hartree/Particle)
 Thermal correction to Energy=                    0.037128
 Thermal correction to Enthalpy=                  0.038072
 Thermal correction to Gibbs Free Energy=         0.000897
 Sum of electronic and zero-point Energies=           -339.895537
 Sum of electronic and thermal Energies=              -339.889930
 Sum of electronic and thermal Enthalpies=            -339.888985
 Sum of electronic and thermal Free Energies=         -339.926160

                     E (Thermal)             CV                S
                      KCal/Mol        Cal/Mol-Kelvin    Cal/Mol-Kelvin
 Total                   23.298             16.925             78.241
 Electronic               0.000              0.000              2.183
 Translational            0.889              2.981             38.977
 Rotational               0.889              2.981             25.546
 Vibrational             21.521             10.964             11.535
 Vibration     1          0.595              1.978              4.890
 Vibration     2          0.619              1.900              2.643
 Vibration     3          0.715              1.610              1.247
 Vibration     4          0.740              1.539              1.091
 Vibration     5          0.752              1.507              1.029

 Optimization completed.
    -- Stationary point found.
 Normal termination of Gaussian 09 at Tue Aug  1 07:35:13 2017.
