 Gaussian 09, Revision B.01,
 Gaussian 09:  EM64L-G09RevB.01 12-Aug-2010

 --------------------------------------------------------
 # m062x/6-311+g(2df,2p) opt=(ts,calcfc,noeigentest) freq
 --------------------------------------------------------

 ------------------------------------
 [OH]+[O]C1C=CC=CC=1_OC1C=CC=CC=1+[O]
 ------------------------------------
 Symbolic Z-matrix:
 Charge =  0 Multiplicity = 3

 SCF Done:  E(UM062X) =  -382.495166672     A.U. after   37 cycles
 SCF Done:  E(UM062X) =  -382.495166451     A.U. after   17 cycles
 Optimization completed.
    -- Stationary point found.
 Normal termination of Gaussian 09 at Sun Aug 20 04:50:45 2017.

 ----------------------------------------------------------------------
 #N Geom=AllCheck Guess=TCheck SCRF=Check GenChk UM062X/6-311+G(2df,2p)
  Freq
 ----------------------------------------------------------------------

 [OH]+[O]C1C=CC=CC=1_OC1C=CC=CC=1+[O]
 ------------------------------------
 Redundant internal coordinates taken from checkpoint file:
 /gss_gpfs_scratch/harms.n/QMscratch/[OH]+[O]C1C=CC=CC=1_OC1C=CC=CC=1+[O].chk
 Charge =  0 Multiplicity = 3

                         Standard orientation:
 ---------------------------------------------------------------------
 Center     Atomic      Atomic             Coordinates (Angstroms)
 Number     Number       Type             X           Y           Z
 ---------------------------------------------------------------------
      1          8           0       -2.973932    0.548376    0.720983
      2          1           0       -2.353680   -0.140956   -0.206224
      3          6           0       -0.398707   -0.392880   -0.288390
      4          6           0        0.591639   -1.317730    0.076432
      5          6           0        1.880354   -0.882780    0.303614
      6          6           0        2.191598    0.472672    0.207076
      7          6           0        1.206562    1.395173   -0.133289
      8          6           0       -0.082925    0.973428   -0.390732
      9          8           0       -1.617775   -0.838098   -0.557454
     10          1           0        0.314431   -2.359166    0.159626
     11          1           0        2.649806   -1.594571    0.568928
     12          1           0        3.201167    0.808796    0.398551
     13          1           0        1.451872    2.445701   -0.205350
     14          1           0       -0.861059    1.670676   -0.672038
 ---------------------------------------------------------------------

 SCF Done:  E(UM062X) =  -382.495166451     A.U. after    1 cycles

 The electronic state is 3-A.
 Alpha  occ. eigenvalues --  -19.70432 -19.67357 -10.62541 -10.56817 -10.56662
 Alpha  occ. eigenvalues --  -10.56547 -10.56529 -10.56409  -1.21186  -1.10562
 Alpha  occ. eigenvalues --   -0.98195  -0.87345  -0.85474  -0.72845  -0.71042
 Alpha  occ. eigenvalues --   -0.64882  -0.60538  -0.56699  -0.55021  -0.52688
 Alpha  occ. eigenvalues --   -0.51633  -0.50013  -0.49129  -0.46030  -0.44922
 Alpha  occ. eigenvalues --   -0.44206  -0.43809  -0.39875  -0.33757  -0.30695
 Alpha virt. eigenvalues --   -0.00341   0.00745   0.00841   0.02147   0.02816
 Alpha virt. eigenvalues --    0.04539   0.04710   0.06262   0.07319   0.08639
 Alpha virt. eigenvalues --    0.08731   0.09151   0.09898   0.12893   0.13147

  Beta  occ. eigenvalues --  -19.67687 -19.66761 -10.62568 -10.56742 -10.56621
  Beta  occ. eigenvalues --  -10.56568 -10.56537 -10.56354  -1.19123  -0.98383
  Beta  occ. eigenvalues --   -0.96989  -0.87209  -0.84862  -0.72361  -0.70498
  Beta  occ. eigenvalues --   -0.63435  -0.59241  -0.56305  -0.53073  -0.51511
  Beta  occ. eigenvalues --   -0.50876  -0.46921  -0.44611  -0.43110  -0.40954
  Beta  occ. eigenvalues --   -0.37149  -0.33398  -0.29480
  Beta virt. eigenvalues --   -0.15572  -0.08773   0.00273   0.00856   0.01763
  Beta virt. eigenvalues --    0.02187   0.02930   0.04704   0.04848   0.06181
  Beta virt. eigenvalues --    0.07421   0.08679   0.08953   0.09206   0.09956

 Mulliken atomic charges:
              1
     1  O   -0.214042
     2  H    0.302814
     3  C   -0.334554
     4  C    0.163023
     5  C   -0.232553
     6  C   -0.108041
     7  C   -0.276331
     8  C    0.201871
     9  O   -0.297058
    10  H    0.165863
    11  H    0.152438
    12  H    0.153998
    13  H    0.152490
    14  H    0.170082
 Sum of Mulliken atomic charges =   0.00000

 Dipole moment (field-independent basis, Debye):
    X=              3.0826    Y=              0.4603    Z=             -0.3840  Tot=              3.1403
 Quadrupole moment (field-independent basis, Debye-Ang):
   XX=            -47.2630   YY=            -42.5866   ZZ=            -50.7946
   XY=             -0.3003   XZ=              3.5555   YZ=             -2.0905

  Exact polarizability: 267.086 -29.504  89.704 -38.256   6.166  62.773
 Approx polarizability: 217.887 -17.709 116.093 -14.978   4.301  74.782

 ******    1 imaginary frequencies (negative Signs) ******

                     1                      2                      3
                     A                      A                      A
 Frequencies -- -2050.5901                57.6834                80.6695
 Red. masses --     1.1276                 7.1522                 8.2899
 Frc consts  --     2.7935                 0.0140                 0.0318
 IR Inten    -- 30456.7578                 1.0009                 0.7192

                     4                      5                      6
                     A                      A                      A
 Frequencies --   216.8564               375.5025               413.1156
 Red. masses --     4.8080                 6.0890                 2.9583
 Frc consts  --     0.1332                 0.5059                 0.2975
 IR Inten    --     1.9723                22.5637                 0.4093

                     7                      8                      9
                     A                      A                      A
 Frequencies --   488.3984               537.8866               549.2205
 Red. masses --     3.3804                 6.8599                 3.5135
 Frc consts  --     0.4751                 1.1694                 0.6244
 IR Inten    --    20.1574                 8.8151                41.7966

                    10                     11                     12
                     A                      A                      A
 Frequencies --   624.7467               688.8014               797.0550
 Red. masses --     6.1403                 1.6490                 1.9185
 Frc consts  --     1.4120                 0.4610                 0.7181
 IR Inten    --     5.1484                38.8707                42.0622

                    13                     14                     15
                     A                      A                      A
 Frequencies --   842.7009               850.9980               945.6656
 Red. masses --     1.2527                 5.3428                 1.4722
 Frc consts  --     0.5242                 2.2797                 0.7757
 IR Inten    --     0.4398                 3.3882                 5.0216

                    16                     17                     18
                     A                      A                      A
 Frequencies --  1006.1882              1010.7683              1024.7121
 Red. masses --     1.3662                 4.9274                 1.3423
 Frc consts  --     0.8149                 2.9660                 0.8305
 IR Inten    --     0.9935                13.2325                 0.3192

                    19                     20                     21
                     A                      A                      A
 Frequencies --  1049.3055              1106.6746              1134.9238
 Red. masses --     2.0729                 1.4524                 1.2740
 Frc consts  --     1.3447                 1.0480                 0.9668
 IR Inten    --     3.6399                51.0100               340.8242

                    22                     23                     24
                     A                      A                      A
 Frequencies --  1170.7981              1193.8067              1292.6295
 Red. masses --     1.1713                 1.1312                 2.6912
 Frc consts  --     0.9460                 0.9499                 2.6494
 IR Inten    --     0.4732                40.6968               119.6468

                    25                     26                     27
                     A                      A                      A
 Frequencies --  1342.8259              1353.0171              1448.3467
 Red. masses --     4.1767                 1.4182                 1.4347
 Frc consts  --     4.4373                 1.5296                 1.7732
 IR Inten    --    28.6011                21.6984               455.6948

                    28                     29                     30
                     A                      A                      A
 Frequencies --  1501.1758              1565.8090              1623.4198
 Red. masses --     2.4993                 2.1853                 5.3126
 Frc consts  --     3.3185                 3.1567                 8.2493
 IR Inten    --    11.7057               367.7267                 8.0615

                    31                     32                     33
                     A                      A                      A
 Frequencies --  1679.3571              3179.4877              3184.7279
 Red. masses --     3.5891                 1.0870                 1.0898
 Frc consts  --     5.9637                 6.4745                 6.5124
 IR Inten    --    82.8562                 0.4288                 8.6535

                    34                     35                     36
                     A                      A                      A
 Frequencies --  3194.4040              3205.1262              3209.2982
 Red. masses --     1.0928                 1.0961                 1.0971
 Frc consts  --     6.5699                 6.6343                 6.6577
 IR Inten    --     1.0982                 5.9410                 6.1355

 - Thermochemistry -
 -------------------
 Temperature   298.150 Kelvin.  Pressure   1.00000 Atm.
 Atom     1 has atomic number  8 and mass  15.99491

 Molecular mass:   110.03678 amu.
 Principal axes and moments of inertia in atomic units:
                           1         2         3
     Eigenvalues --   436.429411256.421131557.47216
           X            0.99994   0.00089   0.01135
           Y           -0.00055   0.99955  -0.03004
           Z           -0.01137   0.03003   0.99948
 This molecule is an asymmetric top.
 Rotational symmetry number  1.
 Warning -- assumption of classical behavior for rotation
           may cause significant error
 Rotational temperatures (Kelvin)      0.19846     0.06894     0.05561
 Rotational constants (GHZ):           4.13524     1.43641     1.15876
    1 imaginary frequencies ignored.
 Zero-point vibrational energy     262856.1 (Joules/Mol)
                                   62.82411 (Kcal/Mol)
 Warning -- explicit consideration of   8 degrees of freedom as
           vibrations may cause significant error
 Vibrational temperatures:     82.99   116.07   312.01   540.26   594.38
          (Kelvin)            702.70   773.90   790.20   898.87   991.03
                             1146.78  1212.46  1224.39  1360.60  1447.68
                             1454.27  1474.33  1509.71  1592.26  1632.90
                             1684.52  1717.62  1859.80  1932.02  1946.69
                             2083.85  2159.85  2252.85  2335.74  2416.22
                             4574.57  4582.11  4596.03  4611.46  4617.46

 Zero-point correction=                           0.100117 (Hartree/Particle)
 Thermal correction to Energy=                    0.107114
 Thermal correction to Enthalpy=                  0.108058
 Thermal correction to Gibbs Free Energy=         0.066883
 Sum of electronic and zero-point Energies=           -382.395050
 Sum of electronic and thermal Energies=              -382.388052
 Sum of electronic and thermal Enthalpies=            -382.387108
 Sum of electronic and thermal Free Energies=         -382.428283

                     E (Thermal)             CV                S
                      KCal/Mol        Cal/Mol-Kelvin    Cal/Mol-Kelvin
 Total                   67.215             25.430             86.660
 Electronic               0.000              0.000              2.183
 Translational            0.889              2.981             40.003
 Rotational               0.889              2.981             28.237
 Vibrational             65.438             19.468             16.237
 Vibration     1          0.596              1.974              4.535
 Vibration     2          0.600              1.962              3.875
 Vibration     3          0.646              1.815              1.985
 Vibration     4          0.746              1.522              1.057
 Vibration     5          0.777              1.442              0.916
 Vibration     6          0.844              1.276              0.688
 Vibration     7          0.893              1.166              0.570
 Vibration     8          0.904              1.141              0.546

 Optimization completed.
    -- Stationary point found.
 Normal termination of Gaussian 09 at Sun Aug 20 05:27:03 2017.
