 Gaussian 09, Revision B.01,
 Gaussian 09:  EM64L-G09RevB.01 12-Aug-2010

 --------------------------------------------------------------
 # m062x/6-311+g(2df,2p) opt=(verytight,gdiis) freq IOP(2/16=3)
 --------------------------------------------------------------

 ---------------------------------------
 InChI=1S/C3H3O3/c4-1-2-6-3-5/h3H,2H2/u1
 ---------------------------------------
 Symbolic Z-matrix:
 Charge =  0 Multiplicity = 2

 SCF Done:  E(UM062X) =  -341.685702078     A.U. after   16 cycles
 SCF Done:  E(UM062X) =  -341.708636058     A.U. after   15 cycles
 SCF Done:  E(UM062X) =  -341.710553979     A.U. after   15 cycles
 SCF Done:  E(UM062X) =  -341.712306236     A.U. after   17 cycles
 SCF Done:  E(UM062X) =  -341.713946858     A.U. after   16 cycles
 SCF Done:  E(UM062X) =  -341.714351398     A.U. after   14 cycles
 SCF Done:  E(UM062X) =  -341.714425900     A.U. after   13 cycles
 SCF Done:  E(UM062X) =  -341.714434105     A.U. after   11 cycles
 SCF Done:  E(UM062X) =  -341.714435077     A.U. after   11 cycles
 SCF Done:  E(UM062X) =  -341.714435405     A.U. after   11 cycles
 SCF Done:  E(UM062X) =  -341.714435480     A.U. after   10 cycles
 SCF Done:  E(UM062X) =  -341.714435593     A.U. after   10 cycles
 SCF Done:  E(UM062X) =  -341.714435627     A.U. after   17 cycles
 SCF Done:  E(UM062X) =  -341.714435638     A.U. after   17 cycles
 SCF Done:  E(UM062X) =  -341.714435639     A.U. after    8 cycles
 SCF Done:  E(UM062X) =  -341.714435640     A.U. after    5 cycles
 SCF Done:  E(UM062X) =  -341.714435640     A.U. after   17 cycles
 SCF Done:  E(UM062X) =  -341.714435640     A.U. after    3 cycles
 Optimization completed.
    -- Stationary point found.
 Normal termination of Gaussian 09 at Fri Mar 10 16:09:32 2017.

 ----------------------------------------------------------------------
 #N Geom=AllCheck Guess=TCheck SCRF=Check Test GenChk UM062X/6-311+G(2d
 f,2p) Freq
 ----------------------------------------------------------------------

 InChI=1S/C3H3O3/c4-1-2-6-3-5/h3H,2H2/u1
 ---------------------------------------
 Redundant internal coordinates taken from checkpoint file:
 /gss_gpfs_scratch/westgroup/rwest-autotst-1/Gau-999.chk
 Charge =  0 Multiplicity = 2

                         Standard orientation:
 ---------------------------------------------------------------------
 Center     Atomic      Atomic             Coordinates (Angstroms)
 Number     Number       Type             X           Y           Z
 ---------------------------------------------------------------------
      1          6           0       -0.330656    0.682753    0.000007
      2          6           0        1.641899   -0.552014   -0.000001
      3          8           0        0.304133   -0.589917    0.000007
      4          6           0       -1.827226    0.521372   -0.000006
      5          1           0       -0.046982    1.262028    0.879739
      6          1           0       -0.046967    1.262035   -0.879716
      7          8           0        2.297130    0.444625   -0.000006
      8          1           0        2.038358   -1.572461   -0.000004
      9          8           0       -2.457328   -0.462741   -0.000003
 ---------------------------------------------------------------------

 SCF Done:  E(UM062X) =  -341.714435640     A.U. after    1 cycles

 The electronic state is 2-A.
 Alpha  occ. eigenvalues --  -19.70353 -19.69430 -19.64503 -10.69481 -10.65222
 Alpha  occ. eigenvalues --  -10.64592  -1.27394  -1.24719  -1.17762  -0.89921
 Alpha  occ. eigenvalues --   -0.74174  -0.67207  -0.63559  -0.61443  -0.59592
 Alpha  occ. eigenvalues --   -0.56824  -0.53324  -0.53022  -0.48789  -0.47331
 Alpha  occ. eigenvalues --   -0.41205  -0.39150  -0.28369
 Alpha virt. eigenvalues --    0.00000   0.01234   0.01356   0.02629   0.03789
 Alpha virt. eigenvalues --    0.04289   0.05639   0.06267   0.07937   0.08941
 Alpha virt. eigenvalues --    0.09911   0.10873   0.14024   0.15473   0.18340

  Beta  occ. eigenvalues --  -19.70293 -19.68724 -19.64505 -10.69472 -10.64541
  Beta  occ. eigenvalues --  -10.64320  -1.27129  -1.22736  -1.17629  -0.88650
  Beta  occ. eigenvalues --   -0.73110  -0.66399  -0.62143  -0.61126  -0.59103
  Beta  occ. eigenvalues --   -0.54551  -0.52634  -0.48474  -0.48292  -0.45853
  Beta  occ. eigenvalues --   -0.41138  -0.39013
  Beta virt. eigenvalues --   -0.05667   0.01323   0.01459   0.01540   0.02570
  Beta virt. eigenvalues --    0.03716   0.04378   0.05842   0.06240   0.07785
  Beta virt. eigenvalues --    0.08775   0.10117   0.10744   0.13743   0.14880

 Mulliken atomic charges:
              1
     1  C   -0.157774
     2  C    0.259215
     3  O   -0.145526
     4  C    0.081481
     5  H    0.177890
     6  H    0.177890
     7  O   -0.370461
     8  H    0.152986
     9  O   -0.175701
 Sum of Mulliken atomic charges =   0.00000

 Dipole moment (field-independent basis, Debye):
    X=              0.6717    Y=              0.0359    Z=              0.0000  Tot=              0.6727
 Quadrupole moment (field-independent basis, Debye-Ang):
   XX=            -44.1206   YY=            -33.0251   ZZ=            -31.9603
   XY=             -6.0428   XZ=              0.0000   YZ=              0.0000

  Exact polarizability:  55.953   1.652  46.115   0.000   0.000  31.205
 Approx polarizability:  57.342   8.109  57.889   0.000   0.000  38.557

                     1                      2                      3
                     A                      A                      A
 Frequencies --    44.5797               175.2499               213.8535
 Red. masses --     9.0357                 8.5782                 3.2241
 Frc consts  --     0.0106                 0.1552                 0.0869
 IR Inten    --     6.2501                 8.0532                 0.0712

                     4                      5                      6
                     A                      A                      A
 Frequencies --   265.8509               341.7649               643.6052
 Red. masses --    10.6587                 2.1356                10.0172
 Frc consts  --     0.4438                 0.1470                 2.4448
 IR Inten    --     5.2868                30.6461                15.6385

                     7                      8                      9
                     A                      A                      A
 Frequencies --   791.8030               902.1572               916.4212
 Red. masses --     8.8070                 1.6701                 3.9037
 Frc consts  --     3.2532                 0.8008                 1.9316
 IR Inten    --     3.0284                 4.2840                 3.4811

                    10                     11                     12
                     A                      A                      A
 Frequencies --  1022.0299              1062.0069              1230.1595
 Red. masses --     6.0413                 1.6570                 8.6860
 Frc consts  --     3.7180                 1.1011                 7.7445
 IR Inten    --    39.9274                 0.0024               463.2033

                    13                     14                     15
                     A                      A                      A
 Frequencies --  1274.9983              1366.1003              1404.6090
 Red. masses --     1.0731                 1.3637                 1.1550
 Frc consts  --     1.0278                 1.4995                 1.3426
 IR Inten    --     1.1874                 1.9152                 2.5470

                    16                     17                     18
                     A                      A                      A
 Frequencies --  1470.8894              1851.2687              2015.1299
 Red. masses --     1.0783                 9.6446                12.7317
 Frc consts  --     1.3745                19.4749                30.4610
 IR Inten    --    28.9121               378.8413               114.9293

                    19                     20                     21
                     A                      A                      A
 Frequencies --  3104.1697              3126.0122              3146.1883
 Red. masses --     1.0575                 1.0943                 1.1054
 Frc consts  --     6.0036                 6.3003                 6.4467
 IR Inten    --     9.1452                29.4752                 0.1113

 - Thermochemistry -
 -------------------
 Temperature   298.150 Kelvin.  Pressure   1.00000 Atm.
 Atom     1 has atomic number  6 and mass  12.00000

 Molecular mass:    87.00822 amu.
 Principal axes and moments of inertia in atomic units:
                           1         2         3
     Eigenvalues --   113.81487 935.435871038.10935
           X            0.99990  -0.01420   0.00000
           Y            0.01420   0.99990   0.00000
           Z            0.00000   0.00000   1.00000
 This molecule is an asymmetric top.
 Rotational symmetry number  1.
 Rotational temperatures (Kelvin)      0.76101     0.09259     0.08343
 Rotational constants (GHZ):          15.85681     1.92931     1.73849
 Zero-point vibrational energy     157720.7 (Joules/Mol)
                                   37.69616 (Kcal/Mol)
 Warning -- explicit consideration of   5 degrees of freedom as
           vibrations may cause significant error
 Vibrational temperatures:     64.14   252.15   307.69   382.50   491.72
          (Kelvin)            926.00  1139.23  1298.00  1318.52  1470.47
                             1527.99  1769.92  1834.44  1965.51  2020.92
                             2116.28  2663.56  2899.32  4466.20  4497.63
                             4526.66

 Zero-point correction=                           0.060073 (Hartree/Particle)
 Thermal correction to Energy=                    0.066162
 Thermal correction to Enthalpy=                  0.067106
 Thermal correction to Gibbs Free Energy=         0.028958
 Sum of electronic and zero-point Energies=           -341.654363
 Sum of electronic and thermal Energies=              -341.648274
 Sum of electronic and thermal Enthalpies=            -341.647329
 Sum of electronic and thermal Free Energies=         -341.685478

                     E (Thermal)             CV                S
                      KCal/Mol        Cal/Mol-Kelvin    Cal/Mol-Kelvin
 Total                   41.517             18.895             80.291
 Electronic               0.000              0.000              1.377
 Translational            0.889              2.981             39.303
 Rotational               0.889              2.981             26.205
 Vibrational             39.740             12.933             13.405
 Vibration     1          0.595              1.980              5.044
 Vibration     2          0.627              1.873              2.378
 Vibration     3          0.644              1.820              2.011
 Vibration     4          0.672              1.736              1.623
 Vibration     5          0.721              1.592              1.204

 Optimization completed.
    -- Stationary point found.
 Normal termination of Gaussian 09 at Fri Mar 10 16:17:34 2017.
