 Gaussian 09, Revision B.01,
 Gaussian 09:  EM64L-G09RevB.01 12-Aug-2010

 --------------------------------------------------------------
 # m062x/6-311+g(2df,2p) opt=(verytight,gdiis) freq IOP(2/16=3)
 --------------------------------------------------------------

 ---------------------------------------
 InChI=1S/C5H8O/c1-3-5(2)4-6/h3-4H,1-2H3
 ---------------------------------------
 Symbolic Z-matrix:
 Charge =  0 Multiplicity = 1

 SCF Done:  E(RM062X) =  -270.507722670     A.U. after   13 cycles
 SCF Done:  E(RM062X) =  -270.514983099     A.U. after   12 cycles
 SCF Done:  E(RM062X) =  -270.515388709     A.U. after   14 cycles
 SCF Done:  E(RM062X) =  -270.515307884     A.U. after   14 cycles
 SCF Done:  E(RM062X) =  -270.515406420     A.U. after   14 cycles
 SCF Done:  E(RM062X) =  -270.515406914     A.U. after   14 cycles
 SCF Done:  E(RM062X) =  -270.515406940     A.U. after    6 cycles
 SCF Done:  E(RM062X) =  -270.515406940     A.U. after    5 cycles
 SCF Done:  E(RM062X) =  -270.515406940     A.U. after    3 cycles
 SCF Done:  E(RM062X) =  -270.515406941     A.U. after    4 cycles
 SCF Done:  E(RM062X) =  -270.516357144     A.U. after    7 cycles
 SCF Done:  E(RM062X) =  -270.516357249     A.U. after    7 cycles
 SCF Done:  E(RM062X) =  -270.516357465     A.U. after    8 cycles
 SCF Done:  E(RM062X) =  -270.516357525     A.U. after   14 cycles
 SCF Done:  E(RM062X) =  -270.516357680     A.U. after   14 cycles
 SCF Done:  E(RM062X) =  -270.516357678     A.U. after   14 cycles
 SCF Done:  E(RM062X) =  -270.516357679     A.U. after   14 cycles
 SCF Done:  E(RM062X) =  -270.516357678     A.U. after   14 cycles
 SCF Done:  E(RM062X) =  -270.516357678     A.U. after   14 cycles
 Optimization completed.
    -- Stationary point found.
 Normal termination of Gaussian 09 at Mon Aug 28 15:50:25 2017.

 ----------------------------------------------------------------------
 #N Geom=AllCheck Guess=TCheck SCRF=Check Test GenChk RM062X/6-311+G(2d
 f,2p) Freq
 ----------------------------------------------------------------------

 InChI=1S/C5H8O/c1-3-5(2)4-6/h3-4H,1-2H3
 ---------------------------------------
 Redundant internal coordinates taken from checkpoint file:
 /gss_gpfs_scratch/harms.n/comparerTST/Gau-16111.chk
 Charge =  0 Multiplicity = 1

                         Standard orientation:
 ---------------------------------------------------------------------
 Center     Atomic      Atomic             Coordinates (Angstroms)
 Number     Number       Type             X           Y           Z
 ---------------------------------------------------------------------
      1          6           0        0.116829    1.527220    0.000000
      2          6           0       -2.443759   -0.191408    0.000000
      3          6           0        0.066593    0.026496   -0.000001
      4          6           0       -1.046337   -0.711209    0.000000
      5          6           0        1.348460   -0.710820    0.000000
      6          1           0       -2.985203   -0.554780    0.875569
      7          1           0       -2.476218    0.895406    0.000003
      8          1           0       -2.985202   -0.554776   -0.875570
      9          1           0       -0.376191    1.939127   -0.880612
     10          1           0        1.153108    1.856511   -0.000008
     11          1           0       -0.376176    1.939126    0.880620
     12          1           0       -0.933531   -1.792376   -0.000001
     13          8           0        2.435261   -0.194622    0.000001
     14          1           0        1.246610   -1.812933    0.000000
 ---------------------------------------------------------------------

 SCF Done:  E(RM062X) =  -270.516357678     A.U. after    1 cycles

 The electronic state is 1-A.
 Alpha  occ. eigenvalues --  -19.61946 -10.62290 -10.56613 -10.55495 -10.54804
 Alpha  occ. eigenvalues --  -10.53384  -1.17163  -0.93463  -0.83970  -0.78479
 Alpha  occ. eigenvalues --   -0.69037  -0.61761  -0.57916  -0.53357  -0.51393
 Alpha  occ. eigenvalues --   -0.48563  -0.48460  -0.47169  -0.45934  -0.44291
 Alpha  occ. eigenvalues --   -0.42894  -0.33089  -0.32411
 Alpha virt. eigenvalues --   -0.01841   0.00637   0.02413   0.03241   0.03572
 Alpha virt. eigenvalues --    0.05179   0.05687   0.06128   0.06589   0.07564
 Alpha virt. eigenvalues --    0.08706   0.09577   0.10413   0.11588   0.12611

 Mulliken atomic charges:
              1
     1  C   -0.719455
     2  C   -0.596871
     3  C    0.817154
     4  C   -0.248971
     5  C   -0.127755
     6  H    0.144703
     7  H    0.149489
     8  H    0.144703
     9  H    0.169448
    10  H    0.182151
    11  H    0.169449
    12  H    0.157599
    13  O   -0.361754
    14  H    0.120110
 Sum of Mulliken atomic charges =   0.00000

 Dipole moment (field-independent basis, Debye):
    X=             -3.7462    Y=             -0.4746    Z=              0.0000  Tot=              3.7762
 Quadrupole moment (field-independent basis, Debye-Ang):
   XX=            -43.6827   YY=            -34.3022   ZZ=            -37.6989
   XY=              0.2080   XZ=              0.0000   YZ=              0.0000

  Exact polarizability:  87.900   6.269  62.865   0.000   0.000  44.388
 Approx polarizability: 101.720  12.223  73.753   0.000   0.000  57.448

                     1                      2                      3
                     A                      A                      A
 Frequencies --    58.0761               103.4459               123.9040
 Red. masses --     1.0503                 1.0447                 3.5846
 Frc consts  --     0.0021                 0.0066                 0.0324
 IR Inten    --     0.0103                 0.1958                 4.5058

                     4                      5                      6
                     A                      A                      A
 Frequencies --   239.8668               305.7560               316.4632
 Red. masses --     3.2571                 3.2268                 2.1953
 Frc consts  --     0.1104                 0.1777                 0.1295
 IR Inten    --     4.5988                 6.8683                 9.5648

                     7                      8                      9
                     A                      A                      A
 Frequencies --   459.6153               483.1667               645.9341
 Red. masses --     2.2815                 4.3377                 3.0617
 Frc consts  --     0.2840                 0.5966                 0.7526
 IR Inten    --     4.6551                 0.6657                 6.3111

                    10                     11                     12
                     A                      A                      A
 Frequencies --   828.7988               860.7900               967.3175
 Red. masses --     3.3352                 1.1061                 1.5530
 Frc consts  --     1.3498                 0.4829                 0.8562
 IR Inten    --    24.7606                12.1010                13.9299

                    13                     14                     15
                     A                      A                      A
 Frequencies --  1024.3185              1055.8346              1056.3421
 Red. masses --     1.4222                 1.5494                 1.6729
 Frc consts  --     0.8792                 1.0177                 1.0998
 IR Inten    --     1.0924                 0.5897                42.6205

                    16                     17                     18
                     A                      A                      A
 Frequencies --  1079.6607              1128.1780              1258.9251
 Red. masses --     1.7869                 2.6172                 1.9366
 Frc consts  --     1.2272                 1.9627                 1.8084
 IR Inten    --     1.0878                 0.0341                30.2497

                    19                     20                     21
                     A                      A                      A
 Frequencies --  1377.0230              1410.3530              1417.9172
 Red. masses --     1.3642                 1.2453                 1.4474
 Frc consts  --     1.5240                 1.4595                 1.7146
 IR Inten    --     8.1273                 4.4337                11.9624

                    22                     23                     24
                     A                      A                      A
 Frequencies --  1443.7748              1483.3454              1483.9886
 Red. masses --     1.2963                 1.1100                 1.0438
 Frc consts  --     1.5920                 1.4390                 1.3544
 IR Inten    --    12.8687                 2.0028                12.5647

                    25                     26                     27
                     A                      A                      A
 Frequencies --  1498.2643              1509.5350              1744.8584
 Red. masses --     1.0523                 1.0435                 6.8676
 Frc consts  --     1.3917                 1.4010                12.3189
 IR Inten    --    22.8136                 4.7413                57.1687

                    28                     29                     30
                     A                      A                      A
 Frequencies --  1827.4627              2970.2034              3043.7019
 Red. masses --    10.9714                 1.0848                 1.0381
 Frc consts  --    21.5878                 5.6388                 5.6663
 IR Inten    --   316.8921                75.6615                 8.2187

                    31                     32                     33
                     A                      A                      A
 Frequencies --  3055.0618              3096.9265              3113.9453
 Red. masses --     1.0384                 1.0992                 1.1013
 Frc consts  --     5.7102                 6.2112                 6.2921
 IR Inten    --     9.8509                 5.4010                 6.9004

                    34                     35                     36
                     A                      A                      A
 Frequencies --  3137.4946              3152.7828              3155.4662
 Red. masses --     1.0935                 1.0949                 1.0990
 Frc consts  --     6.3422                 6.4124                 6.4470
 IR Inten    --     0.1639                15.3699                 1.9251

 - Thermochemistry -
 -------------------
 Temperature   298.150 Kelvin.  Pressure   1.00000 Atm.
 Atom     1 has atomic number  6 and mass  12.00000

 Molecular mass:    84.05751 amu.
 Principal axes and moments of inertia in atomic units:
                           1         2         3
     Eigenvalues --   225.92927 829.645091033.37415
           X            0.99998   0.00595   0.00000
           Y           -0.00595   0.99998   0.00000
           Z            0.00000   0.00000   1.00000
 This molecule is an asymmetric top.
 Rotational symmetry number  1.
 Rotational temperatures (Kelvin)      0.38337     0.10440     0.08382
 Rotational constants (GHZ):           7.98808     2.17532     1.74645
 Zero-point vibrational energy     310541.6 (Joules/Mol)
                                   74.22122 (Kcal/Mol)
 Warning -- explicit consideration of   8 degrees of freedom as
           vibrations may cause significant error
 Vibrational temperatures:     83.56   148.84   178.27   345.11   439.91
          (Kelvin)            455.32   661.28   695.17   929.35  1192.46
                             1238.48  1391.75  1473.76  1519.11  1519.84
                             1553.39  1623.19  1811.31  1981.23  2029.18
                             2040.06  2077.27  2134.20  2135.13  2155.67
                             2171.88  2510.46  2629.31  4273.45  4379.20
                             4395.55  4455.78  4480.27  4514.15  4536.15
                             4540.01

 Zero-point correction=                           0.118279 (Hartree/Particle)
 Thermal correction to Energy=                    0.125672
 Thermal correction to Enthalpy=                  0.126616
 Thermal correction to Gibbs Free Energy=         0.086590
 Sum of electronic and zero-point Energies=           -270.398079
 Sum of electronic and thermal Energies=              -270.390685
 Sum of electronic and thermal Enthalpies=            -270.389741
 Sum of electronic and thermal Free Energies=         -270.429768

                     E (Thermal)             CV                S
                      KCal/Mol        Cal/Mol-Kelvin    Cal/Mol-Kelvin
 Total                   78.860             24.517             84.243
 Electronic               0.000              0.000              0.000
 Translational            0.889              2.981             39.200
 Rotational               0.889              2.981             26.763
 Vibrational             77.083             18.555             18.280
 Vibration     1          0.596              1.974              4.522
 Vibration     2          0.605              1.946              3.388
 Vibration     3          0.610              1.929              3.039
 Vibration     4          0.657              1.779              1.804
 Vibration     5          0.696              1.663              1.385
 Vibration     6          0.703              1.642              1.328
 Vibration     7          0.818              1.340              0.767
 Vibration     8          0.839              1.287              0.702

 Normal termination of Gaussian 09 at Mon Aug 28 16:01:08 2017.
