 Gaussian 09, Revision B.01,
 Gaussian 09:  EM64L-G09RevB.01 12-Aug-2010

 --------------------------------------------------------------
 # m062x/6-311+g(2df,2p) opt=(verytight,gdiis) freq IOP(2/16=3)
 --------------------------------------------------------------

 --------------------------------------------
 InChI=1S/C5H9O/c1-2-4-6-5-3-1/h4H,1-3,5H2/u4
 --------------------------------------------
 Symbolic Z-matrix:
 Charge =  0 Multiplicity = 2

 SCF Done:  E(UM062X) =  -271.060014919     A.U. after   15 cycles
 SCF Done:  E(UM062X) =  -271.069879088     A.U. after   13 cycles
 SCF Done:  E(UM062X) =  -271.073734170     A.U. after   12 cycles
 SCF Done:  E(UM062X) =  -271.074214905     A.U. after   12 cycles
 SCF Done:  E(UM062X) =  -271.074309871     A.U. after   12 cycles
 SCF Done:  E(UM062X) =  -271.074318947     A.U. after   10 cycles
 SCF Done:  E(UM062X) =  -271.074320075     A.U. after    9 cycles
 SCF Done:  E(UM062X) =  -271.074320206     A.U. after    8 cycles
 SCF Done:  E(UM062X) =  -271.074320215     A.U. after    7 cycles
 SCF Done:  E(UM062X) =  -271.074320217     A.U. after    5 cycles
 SCF Done:  E(UM062X) =  -271.074320217     A.U. after    3 cycles
 Optimization completed.
    -- Stationary point found.
 Normal termination of Gaussian 09 at Fri Mar 10 17:20:13 2017.

 ----------------------------------------------------------------------
 #N Geom=AllCheck Guess=TCheck SCRF=Check Test GenChk UM062X/6-311+G(2d
 f,2p) Freq
 ----------------------------------------------------------------------

 InChI=1S/C5H9O/c1-2-4-6-5-3-1/h4H,1-3,5H2/u4
 --------------------------------------------
 Redundant internal coordinates taken from checkpoint file:
 /gss_gpfs_scratch/westgroup/rwest-autotst-1/Gau-19086.chk
 Charge =  0 Multiplicity = 2

                         Standard orientation:
 ---------------------------------------------------------------------
 Center     Atomic      Atomic             Coordinates (Angstroms)
 Number     Number       Type             X           Y           Z
 ---------------------------------------------------------------------
      1          6           0       -1.019004    0.992905    0.263442
      2          6           0        0.366279    1.324799   -0.284128
      3          6           0       -1.386285   -0.431337   -0.152443
      4          6           0        1.368327    0.291024    0.199432
      5          6           0       -0.280969   -1.385538    0.159336
      6          8           0        0.993211   -1.035013   -0.156563
      7          1           0        0.695115    2.314621    0.035709
      8          1           0        0.344795    1.320987   -1.377019
      9          1           0       -1.001945    1.060757    1.354354
     10          1           0       -1.762735    1.702749   -0.098504
     11          1           0       -2.301219   -0.767367    0.335661
     12          1           0       -1.585126   -0.436949   -1.235186
     13          1           0        1.457882    0.341439    1.290479
     14          1           0        2.352432    0.445151   -0.238101
     15          1           0       -0.434970   -2.452393    0.071275
 ---------------------------------------------------------------------

 SCF Done:  E(UM062X) =  -271.074320217     A.U. after    1 cycles

 The electronic state is 2-A.
 Alpha  occ. eigenvalues --  -19.64387 -10.58491 -10.57621 -10.53604 -10.53584
 Alpha  occ. eigenvalues --  -10.53542  -1.18473  -0.90835  -0.86604  -0.73953
 Alpha  occ. eigenvalues --   -0.72514  -0.63544  -0.58691  -0.54280  -0.53061
 Alpha  occ. eigenvalues --   -0.51581  -0.48806  -0.46869  -0.45866  -0.40669
 Alpha  occ. eigenvalues --   -0.40142  -0.38649  -0.35250  -0.22328
 Alpha virt. eigenvalues --    0.01690   0.02890   0.03235   0.03663   0.05063
 Alpha virt. eigenvalues --    0.06055   0.07081   0.07465   0.08037   0.09678
 Alpha virt. eigenvalues --    0.10302   0.11559   0.11620   0.11869   0.12413

  Beta  occ. eigenvalues --  -19.64064 -10.58485 -10.56904 -10.53613 -10.53593
  Beta  occ. eigenvalues --  -10.53527  -1.17307  -0.90623  -0.85586  -0.73677
  Beta  occ. eigenvalues --   -0.71336  -0.62404  -0.58079  -0.53210  -0.52363
  Beta  occ. eigenvalues --   -0.50666  -0.47266  -0.46410  -0.45517  -0.39920
  Beta  occ. eigenvalues --   -0.39503  -0.37987  -0.34389
  Beta virt. eigenvalues --   -0.01657   0.02033   0.02833   0.03263   0.03350
  Beta virt. eigenvalues --    0.05220   0.05919   0.06587   0.06904   0.07948
  Beta virt. eigenvalues --    0.09345   0.10335   0.10643   0.10963   0.11750

 Mulliken atomic charges:
              1
     1  C   -0.290784
     2  C   -0.291052
     3  C   -0.318430
     4  C   -0.246900
     5  C   -0.188128
     6  O   -0.149669
     7  H    0.152121
     8  H    0.182438
     9  H    0.183105
    10  H    0.154040
    11  H    0.151908
    12  H    0.175520
    13  H    0.163002
    14  H    0.153113
    15  H    0.169717
 Sum of Mulliken atomic charges =   0.00000

 Dipole moment (field-independent basis, Debye):
    X=             -0.6362    Y=              1.4354    Z=             -0.0409  Tot=              1.5706
 Quadrupole moment (field-independent basis, Debye-Ang):
   XX=            -37.1256   YY=            -38.1214   ZZ=            -38.8249
   XY=              2.7026   XZ=              0.6048   YZ=              0.2352

  Exact polarizability:  64.745   2.864  64.361   0.835  -0.962  55.445
 Approx polarizability:  72.216   1.887  71.590   0.425  -0.183  69.423

                     1                      2                      3
                     A                      A                      A
 Frequencies --   219.1295               245.2961               380.2335
 Red. masses --     1.9108                 2.3906                 1.7457
 Frc consts  --     0.0541                 0.0847                 0.1487
 IR Inten    --     1.4755                 4.0246                 5.3380

                     4                      5                      6
                     A                      A                      A
 Frequencies --   445.7222               479.7048               565.8405
 Red. masses --     3.5633                 2.7043                 1.4187
 Frc consts  --     0.4171                 0.3667                 0.2676
 IR Inten    --     1.6997                 3.7350                10.7555

                     7                      8                      9
                     A                      A                      A
 Frequencies --   705.8842               835.5410               850.1564
 Red. masses --     1.6976                 1.4584                 3.6072
 Frc consts  --     0.4984                 0.5999                 1.5361
 IR Inten    --     7.9273                 0.2484                 1.3842

                    10                     11                     12
                     A                      A                      A
 Frequencies --   911.3809               921.5031               932.3738
 Red. masses --     2.1792                 2.4503                 1.5063
 Frc consts  --     1.0665                 1.2259                 0.7715
 IR Inten    --     4.7888                19.1084                 4.3001

                    13                     14                     15
                     A                      A                      A
 Frequencies --  1034.4860              1075.2785              1082.9909
 Red. masses --     2.2033                 1.4709                 2.1747
 Frc consts  --     1.3892                 1.0020                 1.5028
 IR Inten    --     8.1275                11.3540                12.3290

                    16                     17                     18
                     A                      A                      A
 Frequencies --  1112.7925              1190.7094              1214.3707
 Red. masses --     1.5555                 1.6148                 1.5272
 Frc consts  --     1.1349                 1.3489                 1.3269
 IR Inten    --     1.3737                16.1908                 4.7971

                    19                     20                     21
                     A                      A                      A
 Frequencies --  1281.6734              1295.1343              1318.4571
 Red. masses --     1.2460                 2.8431                 1.1336
 Frc consts  --     1.2059                 2.8098                 1.1611
 IR Inten    --     6.1040               120.8116                12.1821

                    22                     23                     24
                     A                      A                      A
 Frequencies --  1356.6741              1368.4770              1386.0033
 Red. masses --     1.3038                 1.5785                 1.5715
 Frc consts  --     1.4139                 1.7417                 1.7787
 IR Inten    --     1.9328                 2.4432                 2.2815

                    25                     26                     27
                     A                      A                      A
 Frequencies --  1403.0567              1448.9638              1471.6133
 Red. masses --     1.4086                 1.6027                 1.0940
 Frc consts  --     1.6337                 1.9825                 1.3959
 IR Inten    --     7.1670                21.2098                 2.2624

                    28                     29                     30
                     A                      A                      A
 Frequencies --  1486.8408              1500.2465              1518.3295
 Red. masses --     1.0884                 1.1239                 1.1084
 Frc consts  --     1.4176                 1.4904                 1.5055
 IR Inten    --     7.3201                 9.9763                 6.9969

                    31                     32                     33
                     A                      A                      A
 Frequencies --  2961.3191              3039.5781              3046.0571
 Red. masses --     1.0715                 1.0703                 1.0661
 Frc consts  --     5.5363                 5.8261                 5.8280
 IR Inten    --    34.8208                27.7034                14.8002

                    34                     35                     36
                     A                      A                      A
 Frequencies --  3052.2874              3090.2707              3099.7287
 Red. masses --     1.0623                 1.0881                 1.0994
 Frc consts  --     5.8313                 6.1225                 6.2240
 IR Inten    --    34.6853                18.4556                30.3654

                    37                     38                     39
                     A                      A                      A
 Frequencies --  3110.1287              3147.2898              3203.1479
 Red. masses --     1.1010                 1.0955                 1.0889
 Frc consts  --     6.2746                 6.3935                 6.5823
 IR Inten    --    30.5220                25.9181                20.5660

 - Thermochemistry -
 -------------------
 Temperature   298.150 Kelvin.  Pressure   1.00000 Atm.
 Atom     1 has atomic number  6 and mass  12.00000

 Molecular mass:    85.06534 amu.
 Principal axes and moments of inertia in atomic units:
                           1         2         3
     Eigenvalues --   367.55399 390.11520 683.32882
           X            0.82383   0.56675   0.00963
           Y           -0.56678   0.82387   0.00011
           Z           -0.00787  -0.00555   0.99995
 This molecule is an asymmetric top.
 Rotational symmetry number  1.
 Rotational temperatures (Kelvin)      0.23565     0.22202     0.12675
 Rotational constants (GHZ):           4.91014     4.62618     2.64110
 Zero-point vibrational energy     351634.3 (Joules/Mol)
                                   84.04262 (Kcal/Mol)
 Warning -- explicit consideration of   6 degrees of freedom as
           vibrations may cause significant error
 Vibrational temperatures:    315.28   352.93   547.07   641.29   690.19
          (Kelvin)            814.12  1015.61  1202.16  1223.18  1311.27
                             1325.84  1341.48  1488.39  1547.08  1558.18
                             1601.06  1713.16  1747.21  1844.04  1863.41
                             1896.96  1951.95  1968.93  1994.15  2018.68
                             2084.73  2117.32  2139.23  2158.52  2184.53
                             4260.67  4373.27  4382.59  4391.56  4446.20
                             4459.81  4474.78  4528.24  4608.61

 Zero-point correction=                           0.133930 (Hartree/Particle)
 Thermal correction to Energy=                    0.139433
 Thermal correction to Enthalpy=                  0.140377
 Thermal correction to Gibbs Free Energy=         0.104687
 Sum of electronic and zero-point Energies=           -270.940390
 Sum of electronic and thermal Energies=              -270.934887
 Sum of electronic and thermal Enthalpies=            -270.933943
 Sum of electronic and thermal Free Energies=         -270.969633

                     E (Thermal)             CV                S
                      KCal/Mol        Cal/Mol-Kelvin    Cal/Mol-Kelvin
 Total                   87.495             21.137             75.116
 Electronic               0.000              0.000              1.377
 Translational            0.889              2.981             39.236
 Rotational               0.889              2.981             26.085
 Vibrational             85.718             15.176              8.417
 Vibration     1          0.647              1.812              1.966
 Vibration     2          0.660              1.771              1.764
 Vibration     3          0.750              1.512              1.038
 Vibration     4          0.805              1.370              0.809
 Vibration     5          0.836              1.295              0.711
 Vibration     6          0.922              1.105              0.512

 Optimization completed.
    -- Stationary point found.
 Normal termination of Gaussian 09 at Fri Mar 10 17:44:40 2017.
