 Gaussian 09, Revision B.01,
 Gaussian 09:  EM64L-G09RevB.01 12-Aug-2010

 --------------------------------------------------------------
 # m062x/6-311+g(2df,2p) opt=(verytight,gdiis) freq IOP(2/16=3)
 --------------------------------------------------------------

 ------------------------------------------
 InChI=1S/C5H11O/c1-5(2,3)4-6/h4H2,1-3H3/u6
 ------------------------------------------
 Symbolic Z-matrix:
 Charge =  0 Multiplicity = 2

 SCF Done:  E(UM062X) =  -272.266215969     A.U. after   13 cycles
 SCF Done:  E(UM062X) =  -272.270739492     A.U. after   11 cycles
 SCF Done:  E(UM062X) =  -272.270885567     A.U. after   18 cycles
 SCF Done:  E(UM062X) =  -272.270919470     A.U. after    9 cycles
 SCF Done:  E(UM062X) =  -272.270920553     A.U. after   15 cycles
 SCF Done:  E(UM062X) =  -272.270920878     A.U. after    7 cycles
 SCF Done:  E(UM062X) =  -272.270920920     A.U. after    5 cycles
 SCF Done:  E(UM062X) =  -272.270920918     A.U. after   15 cycles
 SCF Done:  E(UM062X) =  -272.270920918     A.U. after   15 cycles
 SCF Done:  E(UM062X) =  -272.270920918     A.U. after    3 cycles
 Optimization completed.
    -- Stationary point found.
 Normal termination of Gaussian 09 at Fri Aug 18 10:19:08 2017.

 ----------------------------------------------------------------------
 #N Geom=AllCheck Guess=TCheck SCRF=Check Test GenChk UM062X/6-311+G(2d
 f,2p) Freq
 ----------------------------------------------------------------------

 InChI=1S/C5H11O/c1-5(2,3)4-6/h4H2,1-3H3/u6
 ------------------------------------------
 Redundant internal coordinates taken from checkpoint file:
 /gss_gpfs_scratch/harms.n/comparerTST/Gau-13804.chk
 Charge =  0 Multiplicity = 2

                         Standard orientation:
 ---------------------------------------------------------------------
 Center     Atomic      Atomic             Coordinates (Angstroms)
 Number     Number       Type             X           Y           Z
 ---------------------------------------------------------------------
      1          6           0       -0.364868   -0.011693    0.000000
      2          6           0       -1.518929    0.988299    0.000003
      3          6           0       -0.421052   -0.886396    1.251532
      4          6           0       -0.421058   -0.886396   -1.251532
      5          6           0        0.949850    0.772339   -0.000003
      6          8           0        2.089002    0.021143    0.000000
      7          1           0       -1.487811    1.628482    0.884193
      8          1           0       -1.487818    1.628480   -0.884189
      9          1           0       -2.476243    0.465557    0.000007
     10          1           0       -0.399860   -0.276394    2.157065
     11          1           0        0.428776   -1.568937    1.278851
     12          1           0       -1.337163   -1.478324    1.264722
     13          1           0        0.428768   -1.568937   -1.278855
     14          1           0       -1.337170   -1.478323   -1.264718
     15          1           0       -0.399869   -0.276394   -2.157064
     16          1           0        1.006357    1.449361   -0.871388
     17          1           0        1.006358    1.449365    0.871378
 ---------------------------------------------------------------------

 SCF Done:  E(UM062X) =  -272.270920918     A.U. after    1 cycles

 The electronic state is 2-A.
 Alpha  occ. eigenvalues --  -19.66833 -10.59041 -10.54907 -10.52953 -10.52318
 Alpha  occ. eigenvalues --  -10.52317  -1.16019  -0.92704  -0.78652  -0.78200
 Alpha  occ. eigenvalues --   -0.76118  -0.62678  -0.57686  -0.54891  -0.53760
 Alpha  occ. eigenvalues --   -0.50779  -0.49492  -0.45411  -0.45065  -0.43983
 Alpha  occ. eigenvalues --   -0.43240  -0.40639  -0.39157  -0.38129  -0.35235
 Alpha virt. eigenvalues --    0.01180   0.03025   0.03128   0.03371   0.05688
 Alpha virt. eigenvalues --    0.05916   0.06389   0.06886   0.07047   0.08024
 Alpha virt. eigenvalues --    0.10205   0.10336   0.10459   0.10629   0.11289

  Beta  occ. eigenvalues --  -19.65327 -10.59089 -10.54912 -10.52954 -10.52317
  Beta  occ. eigenvalues --  -10.52316  -1.10054  -0.92331  -0.78591  -0.78164
  Beta  occ. eigenvalues --   -0.74528  -0.62155  -0.54491  -0.53862  -0.52255
  Beta  occ. eigenvalues --   -0.48734  -0.48651  -0.45133  -0.44094  -0.43205
  Beta  occ. eigenvalues --   -0.42752  -0.39041  -0.38909  -0.33363
  Beta virt. eigenvalues --   -0.08164   0.01148   0.02997   0.03095   0.03381
  Beta virt. eigenvalues --    0.05674   0.05941   0.06398   0.06866   0.07086
  Beta virt. eigenvalues --    0.08020   0.10208   0.10345   0.10443   0.10636

 Mulliken atomic charges:
              1
     1  C    0.097724
     2  C   -0.497427
     3  C   -0.522536
     4  C   -0.522535
     5  C   -0.207184
     6  O   -0.184767
     7  H    0.158754
     8  H    0.158754
     9  H    0.164680
    10  H    0.158092
    11  H    0.177276
    12  H    0.158783
    13  H    0.177275
    14  H    0.158783
    15  H    0.158092
    16  H    0.183117
    17  H    0.183118
 Sum of Mulliken atomic charges =   0.00000

 Dipole moment (field-independent basis, Debye):
    X=             -1.7055    Y=              0.9345    Z=              0.0000  Tot=              1.9447
 Quadrupole moment (field-independent basis, Debye-Ang):
   XX=            -45.0185   YY=            -38.6437   ZZ=            -38.8268
   XY=              1.3542   XZ=              0.0000   YZ=              0.0000

  Exact polarizability:  66.352  -1.738  64.653   0.000   0.000  64.062
 Approx polarizability:  76.301  -2.399  76.187   0.000   0.000  73.893

                     1                      2                      3
                     A                      A                      A
 Frequencies --   134.7220               217.4032               240.7790
 Red. masses --     2.5527                 1.0797                 3.2372
 Frc consts  --     0.0273                 0.0301                 0.1106
 IR Inten    --     6.1381                 0.0290                 3.0992

                     4                      5                      6
                     A                      A                      A
 Frequencies --   268.2264               295.3365               319.1304
 Red. masses --     1.0614                 1.0777                 1.5741
 Frc consts  --     0.0450                 0.0554                 0.0945
 IR Inten    --     0.1596                 0.0257                 2.6490

                     7                      8                      9
                     A                      A                      A
 Frequencies --   348.9184               386.0917               403.0068
 Red. masses --     2.4728                 1.7260                 2.2576
 Frc consts  --     0.1774                 0.1516                 0.2160
 IR Inten    --     0.6364                 2.4093                 0.8380

                    10                     11                     12
                     A                      A                      A
 Frequencies --   469.0225               551.7327               764.4755
 Red. masses --     2.4039                 3.4474                 3.4366
 Frc consts  --     0.3116                 0.6183                 1.1833
 IR Inten    --     6.1708                 3.0286                 2.9014

                    13                     14                     15
                     A                      A                      A
 Frequencies --   924.1498               955.4080               957.9692
 Red. masses --     2.0725                 1.5626                 1.6039
 Frc consts  --     1.0429                 0.8404                 0.8672
 IR Inten    --     8.2780                 1.3023                 0.4618

                    16                     17                     18
                     A                      A                      A
 Frequencies --   966.6935              1003.8918              1055.0092
 Red. masses --     1.2864                 1.2542                 1.4665
 Frc consts  --     0.7083                 0.7447                 0.9617
 IR Inten    --     0.0320                 0.4484                 3.3841

                    19                     20                     21
                     A                      A                      A
 Frequencies --  1084.2633              1116.5838              1253.4743
 Red. masses --     3.8480                 1.2641                 2.3664
 Frc consts  --     2.6654                 0.9286                 2.1906
 IR Inten    --     9.6755                 0.7371                 6.2778

                    22                     23                     24
                     A                      A                      A
 Frequencies --  1299.3240              1304.2121              1359.5788
 Red. masses --     2.8202                 2.1009                 1.1859
 Frc consts  --     2.8052                 2.1055                 1.2915
 IR Inten    --     0.6321                 2.5095                12.2555

                    25                     26                     27
                     A                      A                      A
 Frequencies --  1388.2733              1403.1105              1408.7408
 Red. masses --     1.3434                 1.2843                 1.2898
 Frc consts  --     1.5255                 1.4897                 1.5081
 IR Inten    --    18.8244                11.8678                 4.6711

                    28                     29                     30
                     A                      A                      A
 Frequencies --  1440.1974              1486.0141              1490.3309
 Red. masses --     1.2526                 1.0461                 1.0454
 Frc consts  --     1.5307                 1.3611                 1.3680
 IR Inten    --     6.8367                 0.0613                 0.3488

                    31                     32                     33
                     A                      A                      A
 Frequencies --  1496.6173              1510.8817              1512.1357
 Red. masses --     1.0439                 1.0582                 1.0669
 Frc consts  --     1.3777                 1.4233                 1.4373
 IR Inten    --     0.0205                 7.0414                 9.5891

                    34                     35                     36
                     A                      A                      A
 Frequencies --  1527.5264              2946.5660              2971.4033
 Red. masses --     1.0724                 1.0553                 1.0905
 Frc consts  --     1.4744                 5.3981                 5.6727
 IR Inten    --    18.9286                17.7644                 6.7219

                    37                     38                     39
                     A                      A                      A
 Frequencies --  3040.3415              3046.9460              3051.3691
 Red. masses --     1.0346                 1.0342                 1.0353
 Frc consts  --     5.6348                 5.6568                 5.6795
 IR Inten    --    20.4357                32.6535                 5.5438

                    40                     41                     42
                     A                      A                      A
 Frequencies --  3112.5082              3113.2938              3119.7085
 Red. masses --     1.1023                 1.1023                 1.1022
 Frc consts  --     6.2920                 6.2951                 6.3202
 IR Inten    --     9.8748                15.2299                21.5128

                    43                     44                     45
                     A                      A                      A
 Frequencies --  3121.5746              3126.3163              3129.7330
 Red. masses --     1.1015                 1.1033                 1.1023
 Frc consts  --     6.3237                 6.3533                 6.3617
 IR Inten    --    33.4723                 0.0129                27.9657

 - Thermochemistry -
 -------------------
 Temperature   298.150 Kelvin.  Pressure   1.00000 Atm.
 Atom     1 has atomic number  6 and mass  12.00000

 Molecular mass:    87.08099 amu.
 Principal axes and moments of inertia in atomic units:
                           1         2         3
     Eigenvalues --   405.88695 668.96957 670.62942
           X            0.99999  -0.00337   0.00000
           Y            0.00337   0.99999   0.00000
           Z            0.00000   0.00000   1.00000
 This molecule is an asymmetric top.
 Rotational symmetry number  1.
 Rotational temperatures (Kelvin)      0.21339     0.12947     0.12915
 Rotational constants (GHZ):           4.44641     2.69779     2.69112
 Zero-point vibrational energy     395503.3 (Joules/Mol)
                                   94.52756 (Kcal/Mol)
 Warning -- explicit consideration of  11 degrees of freedom as
           vibrations may cause significant error
 Vibrational temperatures:    193.83   312.79   346.43   385.92   424.92
          (Kelvin)            459.16   502.02   555.50   579.84   674.82
                              793.82  1099.91  1329.64  1374.62  1378.30
                             1390.85  1444.37  1517.92  1560.01  1606.51
                             1803.47  1869.44  1876.47  1956.13  1997.41
                             2018.76  2026.86  2072.12  2138.04  2144.25
                             2153.30  2173.82  2175.62  2197.77  4239.45
                             4275.18  4374.37  4383.87  4390.23  4478.20
                             4479.33  4488.56  4491.24  4498.07  4502.98

 Zero-point correction=                           0.150639 (Hartree/Particle)
 Thermal correction to Energy=                    0.158374
 Thermal correction to Enthalpy=                  0.159318
 Thermal correction to Gibbs Free Energy=         0.119380
 Sum of electronic and zero-point Energies=           -272.120282
 Sum of electronic and thermal Energies=              -272.112547
 Sum of electronic and thermal Enthalpies=            -272.111603
 Sum of electronic and thermal Free Energies=         -272.151541

                     E (Thermal)             CV                S
                      KCal/Mol        Cal/Mol-Kelvin    Cal/Mol-Kelvin
 Total                   99.381             28.665             84.058
 Electronic               0.000              0.000              1.377
 Translational            0.889              2.981             39.306
 Rotational               0.889              2.981             26.701
 Vibrational             97.604             22.703             16.673
 Vibration     1          0.613              1.919              2.878
 Vibration     2          0.646              1.815              1.981
 Vibration     3          0.658              1.778              1.797
 Vibration     4          0.673              1.732              1.608
 Vibration     5          0.690              1.682              1.443
 Vibration     6          0.705              1.637              1.315
 Vibration     7          0.726              1.577              1.171
 Vibration     8          0.755              1.500              1.015
 Vibration     9          0.768              1.464              0.952
 Vibration    10          0.826              1.319              0.740
 Vibration    11          0.907              1.136              0.541

 Normal termination of Gaussian 09 at Fri Aug 18 10:48:34 2017.
