 Gaussian 09, Revision B.01,
 Gaussian 09:  EM64L-G09RevB.01 12-Aug-2010

 --------------------------------------------------------------
 # m062x/6-311+g(2df,2p) opt=(verytight,gdiis) freq IOP(2/16=3)
 --------------------------------------------------------------

 --------------------------------------------
 InChI=1S/C8H7O/c9-7-6-8-4-2-1-3-5-8/h1-7H/u2
 --------------------------------------------
 Symbolic Z-matrix:
 Charge =  0 Multiplicity = 2

 SCF Done:  E(UM062X) =  -384.154670469     A.U. after   18 cycles
 SCF Done:  E(UM062X) =  -384.162383464     A.U. after   16 cycles
 SCF Done:  E(UM062X) =  -384.165480958     A.U. after   18 cycles
 SCF Done:  E(UM062X) =  -384.176682137     A.U. after   19 cycles
 SCF Done:  E(UM062X) =  -384.165994213     A.U. after   19 cycles
 SCF Done:  E(UM062X) =  -384.182395804     A.U. after   19 cycles
 SCF Done:  E(UM062X) =  -384.189432939     A.U. after   21 cycles
 SCF Done:  E(UM062X) =  -384.162418211     A.U. after   21 cycles
 SCF Done:  E(UM062X) =  -384.195467871     A.U. after   21 cycles
 SCF Done:  E(UM062X) =  -384.197691970     A.U. after   21 cycles
 SCF Done:  E(UM062X) =  -384.200263059     A.U. after   21 cycles
 SCF Done:  E(UM062X) =  -384.200263154     A.U. after   12 cycles
 SCF Done:  E(UM062X) =  -384.200263391     A.U. after   23 cycles
 SCF Done:  E(UM062X) =  -384.200263475     A.U. after   23 cycles
 SCF Done:  E(UM062X) =  -384.200263483     A.U. after   10 cycles
 SCF Done:  E(UM062X) =  -384.200263487     A.U. after    9 cycles
 SCF Done:  E(UM062X) =  -384.200263489     A.U. after    8 cycles
 SCF Done:  E(UM062X) =  -384.200263489     A.U. after    6 cycles
 SCF Done:  E(UM062X) =  -384.200263489     A.U. after    3 cycles
 Optimization completed.
    -- Stationary point found.
 Normal termination of Gaussian 09 at Tue Oct 10 12:13:52 2017.

 ----------------------------------------------------------------------
 #N Geom=AllCheck Guess=TCheck SCRF=Check Test GenChk UM062X/6-311+G(2d
 f,2p) Freq
 ----------------------------------------------------------------------

 InChI=1S/C8H7O/c9-7-6-8-4-2-1-3-5-8/h1-7H/u2
 --------------------------------------------
 Redundant internal coordinates taken from checkpoint file:
 /gss_gpfs_scratch/harms.n/comparerTST/Gau-12878.chk
 Charge =  0 Multiplicity = 2

                         Standard orientation:
 ---------------------------------------------------------------------
 Center     Atomic      Atomic             Coordinates (Angstroms)
 Number     Number       Type             X           Y           Z
 ---------------------------------------------------------------------
      1          6           0        0.108544   -0.430455   -0.000002
      2          6           0       -0.148525    0.957853   -0.000002
      3          6           0       -0.992464   -1.313530    0.000000
      4          6           0        1.419751   -0.986023   -0.000002
      5          6           0       -1.449284    1.422090    0.000000
      6          6           0       -2.520712    0.534164    0.000001
      7          6           0       -2.286898   -0.838199    0.000001
      8          6           0        2.675628   -0.278687    0.000001
      9          1           0        1.495155   -2.066950   -0.000002
     10          1           0        0.683949    1.643393   -0.000002
     11          1           0       -1.634326    2.487534    0.000000
     12          1           0       -3.534954    0.909628    0.000003
     13          1           0       -3.117754   -1.530106    0.000003
     14          1           0       -0.806701   -2.380243    0.000000
     15          8           0        2.814026    0.932915    0.000001
     16          1           0        3.566186   -0.929853    0.000007
 ---------------------------------------------------------------------

 SCF Done:  E(UM062X) =  -384.200263489     A.U. after    1 cycles

 The electronic state is 2-A.
 Alpha  occ. eigenvalues --  -19.61928 -10.61992 -10.57624 -10.56951 -10.56254
 Alpha  occ. eigenvalues --  -10.56127 -10.55594 -10.55409 -10.55300  -1.16874
 Alpha  occ. eigenvalues --   -0.98500  -0.90387  -0.86187  -0.82076  -0.71645
 Alpha  occ. eigenvalues --   -0.70641  -0.64955  -0.59403  -0.58105  -0.55363
 Alpha  occ. eigenvalues --   -0.52733  -0.50889  -0.49954  -0.49527  -0.47939
 Alpha  occ. eigenvalues --   -0.45990  -0.43169  -0.41552  -0.36972  -0.33530
 Alpha  occ. eigenvalues --   -0.32903  -0.26542
 Alpha virt. eigenvalues --   -0.00772   0.00439   0.00580   0.01551   0.02749
 Alpha virt. eigenvalues --    0.03794   0.04580   0.05420   0.06368   0.06663
 Alpha virt. eigenvalues --    0.06833   0.07330   0.08179   0.09037   0.10085

  Beta  occ. eigenvalues --  -19.61499 -10.62064 -10.57260 -10.57041 -10.56160
  Beta  occ. eigenvalues --  -10.56026 -10.55644 -10.55389 -10.55280  -1.15695
  Beta  occ. eigenvalues --   -0.98191  -0.89426  -0.86019  -0.80776  -0.71276
  Beta  occ. eigenvalues --   -0.70446  -0.64615  -0.58909  -0.57575  -0.54986
  Beta  occ. eigenvalues --   -0.52319  -0.50682  -0.49706  -0.47399  -0.46716
  Beta  occ. eigenvalues --   -0.44126  -0.42836  -0.41438  -0.33867  -0.32630
  Beta  occ. eigenvalues --   -0.32279
  Beta virt. eigenvalues --   -0.10314   0.00554   0.00686   0.01104   0.01561
  Beta virt. eigenvalues --    0.02714   0.03811   0.04638   0.05214   0.06093
  Beta virt. eigenvalues --    0.06875   0.07295   0.07548   0.08190   0.09547

 Mulliken atomic charges:
              1
     1  C    1.072820
     2  C   -0.311897
     3  C   -0.221133
     4  C   -0.244542
     5  C   -0.453873
     6  C   -0.178381
     7  C   -0.315336
     8  C   -0.131368
     9  H    0.179008
    10  H    0.212530
    11  H    0.153365
    12  H    0.154291
    13  H    0.149301
    14  H    0.152978
    15  O   -0.350182
    16  H    0.132419
 Sum of Mulliken atomic charges =   0.00000

 Dipole moment (field-independent basis, Debye):
    X=             -2.4053    Y=             -2.2589    Z=              0.0000  Tot=              3.2997
 Quadrupole moment (field-independent basis, Debye-Ang):
   XX=            -52.1825   YY=            -48.0847   ZZ=            -56.3428
   XY=             -7.2050   XZ=              0.0000   YZ=              0.0000

  Exact polarizability: 152.594  -5.594 101.160   0.000   0.000  54.099
 Approx polarizability: 168.275  -3.570 137.984   0.000   0.000  73.527

                     1                      2                      3
                     A                      A                      A
 Frequencies --    72.1024               160.5855               195.2536
 Red. masses --     5.3105                 3.0532                 6.4066
 Frc consts  --     0.0163                 0.0464                 0.1439
 IR Inten    --     3.8907                 8.6348                 6.1842

                     4                      5                      6
                     A                      A                      A
 Frequencies --   311.5582               317.3827               410.0962
 Red. masses --     2.5727                 6.4068                 2.8807
 Frc consts  --     0.1471                 0.3802                 0.2854
 IR Inten    --     1.5907                 2.7988                 0.0276

                     7                      8                      9
                     A                      A                      A
 Frequencies --   495.6406               501.6342               624.0832
 Red. masses --     5.9263                 2.6811                 6.4365
 Frc consts  --     0.8578                 0.3975                 1.4770
 IR Inten    --    25.2567                 7.4671                 0.1862

                    10                     11                     12
                     A                      A                      A
 Frequencies --   698.4280               743.1057               757.6201
 Red. masses --     1.7608                 1.2071                 5.6493
 Frc consts  --     0.5060                 0.3927                 1.9105
 IR Inten    --    44.4143                 2.1753                20.3388

                    13                     14                     15
                     A                      A                      A
 Frequencies --   804.9989               854.5836               874.1576
 Red. masses --     1.8864                 5.6778                 1.2561
 Frc consts  --     0.7202                 2.4431                 0.5655
 IR Inten    --    42.3681                 6.8021                 0.0993

                    16                     17                     18
                     A                      A                      A
 Frequencies --   967.7217              1008.5682              1010.7341
 Red. masses --     1.4078                 1.7001                 5.6654
 Frc consts  --     0.7768                 1.0189                 3.4100
 IR Inten    --     3.1791                 0.8680                 1.8038

                    19                     20                     21
                     A                      A                      A
 Frequencies --  1021.1476              1041.3800              1053.5875
 Red. masses --     1.3703                 1.3398                 2.7466
 Frc consts  --     0.8419                 0.8561                 1.7963
 IR Inten    --     0.0047                 0.0435                 9.3863

                    22                     23                     24
                     A                      A                      A
 Frequencies --  1075.4900              1123.5695              1178.8185
 Red. masses --     2.0598                 1.5389                 1.1778
 Frc consts  --     1.4038                 1.1446                 0.9643
 IR Inten    --    57.9845                 4.0084                 1.1052

                    25                     26                     27
                     A                      A                      A
 Frequencies --  1193.7567              1236.1502              1332.8504
 Red. masses --     1.2837                 1.5613                 4.1658
 Frc consts  --     1.0778                 1.4057                 4.3603
 IR Inten    --    14.9411                 9.1509                 0.2198

                    28                     29                     30
                     A                      A                      A
 Frequencies --  1356.2433              1430.3569              1444.8336
 Red. masses --     1.5332                 1.3295                 2.0512
 Frc consts  --     1.6616                 1.6026                 2.5229
 IR Inten    --     8.2755                20.1381                25.7376

                    31                     32                     33
                     A                      A                      A
 Frequencies --  1507.3091              1517.3446              1623.4821
 Red. masses --     2.3336                 2.1891                 4.9344
 Frc consts  --     3.1238                 2.9695                 7.6627
 IR Inten    --     5.7490                 3.2693                 1.2528

                    34                     35                     36
                     A                      A                      A
 Frequencies --  1639.8732              1693.5651              2992.3685
 Red. masses --     5.2620                 7.3306                 1.0838
 Frc consts  --     8.3372                12.3877                 5.7177
 IR Inten    --    22.1528               180.1739               119.7846

                    37                     38                     39
                     A                      A                      A
 Frequencies --  3180.9299              3187.0959              3190.8049
 Red. masses --     1.0872                 1.0880                 1.0890
 Frc consts  --     6.4812                 6.5114                 6.5324
 IR Inten    --     0.0928                12.0866                 3.5279

                    40                     41                     42
                     A                      A                      A
 Frequencies --  3200.1824              3209.6455              3242.7483
 Red. masses --     1.0935                 1.0978                 1.0932
 Frc consts  --     6.5982                 6.6635                 6.7728
 IR Inten    --     9.6029                 6.0983                 6.6674

 - Thermochemistry -
 -------------------
 Temperature   298.150 Kelvin.  Pressure   1.00000 Atm.
 Atom     1 has atomic number  6 and mass  12.00000

 Molecular mass:   119.04969 amu.
 Principal axes and moments of inertia in atomic units:
                           1         2         3
     Eigenvalues --   426.710381622.978222049.68860
           X            0.99985  -0.01720   0.00000
           Y            0.01720   0.99985   0.00000
           Z            0.00000   0.00000   1.00000
 This molecule is an asymmetric top.
 Rotational symmetry number  1.
 Rotational temperatures (Kelvin)      0.20298     0.05337     0.04226
 Rotational constants (GHZ):           4.22943     1.11199     0.88050
 Zero-point vibrational energy     331854.8 (Joules/Mol)
                                   79.31520 (Kcal/Mol)
 Warning -- explicit consideration of   8 degrees of freedom as
           vibrations may cause significant error
 Vibrational temperatures:    103.74   231.05   280.93   448.26   456.64
          (Kelvin)            590.04   713.12   721.74   897.92  1004.88
                             1069.16  1090.05  1158.21  1229.55  1257.72
                             1392.33  1451.10  1454.22  1469.20  1498.31
                             1515.88  1547.39  1616.56  1696.05  1717.55
                             1778.54  1917.67  1951.33  2057.96  2078.79
                             2168.68  2183.12  2335.83  2359.41  2436.66
                             4305.35  4576.64  4585.51  4590.85  4604.34
                             4617.96  4665.59

 Zero-point correction=                           0.126397 (Hartree/Particle)
 Thermal correction to Energy=                    0.133773
 Thermal correction to Enthalpy=                  0.134717
 Thermal correction to Gibbs Free Energy=         0.093504
 Sum of electronic and zero-point Energies=           -384.073867
 Sum of electronic and thermal Energies=              -384.066491
 Sum of electronic and thermal Enthalpies=            -384.065547
 Sum of electronic and thermal Free Energies=         -384.106759

                     E (Thermal)             CV                S
                      KCal/Mol        Cal/Mol-Kelvin    Cal/Mol-Kelvin
 Total                   83.944             27.990             86.739
 Electronic               0.000              0.000              1.377
 Translational            0.889              2.981             40.238
 Rotational               0.889              2.981             28.742
 Vibrational             82.166             22.028             16.382
 Vibration     1          0.598              1.967              4.095
 Vibration     2          0.622              1.891              2.543
 Vibration     3          0.636              1.846              2.177
 Vibration     4          0.700              1.652              1.354
 Vibration     5          0.704              1.640              1.324
 Vibration     6          0.774              1.448              0.926
 Vibration     7          0.851              1.260              0.669
 Vibration     8          0.857              1.246              0.654

 Normal termination of Gaussian 09 at Tue Oct 10 13:08:46 2017.
