 Gaussian 09, Revision B.01,
 Gaussian 09:  EM64L-G09RevB.01 12-Aug-2010

 --------------------------------------------------------------
 # m062x/6-311+g(2df,2p) opt=(verytight,gdiis) freq IOP(2/16=3)
 --------------------------------------------------------------

 -------------------------------------------------
 InChI=1S/C6H11O/c1-4-6(7)5(2)3/h5H,1,4H2,2-3H3/u1
 -------------------------------------------------
 Symbolic Z-matrix:
 Charge =  0 Multiplicity = 2

 SCF Done:  E(UM062X) =  -310.362867764     A.U. after   15 cycles
 SCF Done:  E(UM062X) =  -310.372486603     A.U. after   13 cycles
 SCF Done:  E(UM062X) =  -310.376642104     A.U. after   14 cycles
 SCF Done:  E(UM062X) =  -310.377209986     A.U. after   13 cycles
 SCF Done:  E(UM062X) =  -310.377634259     A.U. after   14 cycles
 SCF Done:  E(UM062X) =  -310.378218012     A.U. after   12 cycles
 SCF Done:  E(UM062X) =  -310.378540746     A.U. after   13 cycles
 SCF Done:  E(UM062X) =  -310.378647719     A.U. after   14 cycles
 SCF Done:  E(UM062X) =  -310.378544337     A.U. after   14 cycles
 SCF Done:  E(UM062X) =  -310.378792936     A.U. after   13 cycles
 SCF Done:  E(UM062X) =  -310.378868426     A.U. after    3 cycles
 SCF Done:  E(UM062X) =  -310.378868425     A.U. after    3 cycles
 SCF Done:  E(UM062X) =  -310.378868426     A.U. after    3 cycles
 SCF Done:  E(UM062X) =  -310.378868425     A.U. after    3 cycles
 SCF Done:  E(UM062X) =  -310.378868428     A.U. after    4 cycles
 SCF Done:  E(UM062X) =  -310.378868426     A.U. after    4 cycles
 SCF Done:  E(UM062X) =  -310.378868426     A.U. after    3 cycles
 SCF Done:  E(UM062X) =  -310.378868426     A.U. after    3 cycles
 SCF Done:  E(UM062X) =  -310.378868426     A.U. after    2 cycles
 Optimization completed.
    -- Stationary point found.
 Normal termination of Gaussian 09 at Tue Mar 14 22:38:20 2017.

 ----------------------------------------------------------------------
 #N Geom=AllCheck Guess=TCheck SCRF=Check Test GenChk UM062X/6-311+G(2d
 f,2p) Freq
 ----------------------------------------------------------------------

 InChI=1S/C6H11O/c1-4-6(7)5(2)3/h5H,1,4H2,2-3H3/u1
 -------------------------------------------------
 Redundant internal coordinates taken from checkpoint file:
 /gss_gpfs_scratch/westgroup/rwest-autotst-1/Gau-22218.chk
 Charge =  0 Multiplicity = 2

                         Standard orientation:
 ---------------------------------------------------------------------
 Center     Atomic      Atomic             Coordinates (Angstroms)
 Number     Number       Type             X           Y           Z
 ---------------------------------------------------------------------
      1          6           0        0.784402    0.348918   -0.382853
      2          6           0       -1.679379   -0.499781   -0.463558
      3          6           0        1.068658    1.404413    0.689615
      4          6           0        2.050744   -0.429568   -0.732003
      5          6           0       -0.278410   -0.605098    0.145839
      6          6           0       -2.265967    0.842084   -0.204228
      7          1           0        0.393387    0.842936   -1.275301
      8          1           0       -1.586447   -0.676279   -1.538150
      9          1           0       -2.278603   -1.294731   -0.021205
     10          1           0        1.833820    2.098188    0.341301
     11          1           0        0.173665    1.975524    0.937788
     12          1           0        1.427715    0.916876    1.596020
     13          1           0        2.824723    0.249825   -1.088318
     14          1           0        2.419419   -0.946265    0.153204
     15          1           0        1.865405   -1.173989   -1.506459
     16          8           0       -0.035744   -1.383252    1.030106
     17          1           0       -2.698659    1.061622    0.759756
     18          1           0       -2.168759    1.646502   -0.916359
 ---------------------------------------------------------------------

 SCF Done:  E(UM062X) =  -310.378868426     A.U. after    1 cycles

 The electronic state is 2-A.
 Alpha  occ. eigenvalues --  -19.61821 -10.62805 -10.55917 -10.55142 -10.55080
 Alpha  occ. eigenvalues --  -10.53199 -10.52877  -1.17555  -0.91679  -0.88226
 Alpha  occ. eigenvalues --   -0.78416  -0.74579  -0.69939  -0.60480  -0.56710
 Alpha  occ. eigenvalues --   -0.55288  -0.52911  -0.51219  -0.49701  -0.47573
 Alpha  occ. eigenvalues --   -0.46079  -0.45416  -0.43109  -0.42184  -0.40407
 Alpha  occ. eigenvalues --   -0.40247  -0.33805  -0.26754
 Alpha virt. eigenvalues --    0.00902   0.01863   0.02651   0.03354   0.03632
 Alpha virt. eigenvalues --    0.05021   0.05618   0.06111   0.06544   0.07057
 Alpha virt. eigenvalues --    0.08322   0.09071   0.09425   0.10193   0.10487

  Beta  occ. eigenvalues --  -19.61782 -10.62702 -10.55263 -10.55199 -10.55078
  Beta  occ. eigenvalues --  -10.53185 -10.52878  -1.17409  -0.91329  -0.86913
  Beta  occ. eigenvalues --   -0.78384  -0.72660  -0.68615  -0.60188  -0.56246
  Beta  occ. eigenvalues --   -0.54600  -0.52413  -0.50806  -0.49252  -0.47074
  Beta  occ. eigenvalues --   -0.46003  -0.45139  -0.42712  -0.41982  -0.40355
  Beta  occ. eigenvalues --   -0.40159  -0.32098
  Beta virt. eigenvalues --   -0.03759   0.00643   0.01882   0.02557   0.03292
  Beta virt. eigenvalues --    0.03827   0.05090   0.05679   0.06294   0.06569
  Beta virt. eigenvalues --    0.07141   0.08310   0.09090   0.09513   0.10278

 Mulliken atomic charges:
              1
     1  C    0.060802
     2  C   -0.211520
     3  C   -0.512685
     4  C   -0.571292
     5  C    0.245575
     6  C   -0.462432
     7  H    0.178618
     8  H    0.180289
     9  H    0.174333
    10  H    0.144494
    11  H    0.151096
    12  H    0.180455
    13  H    0.141503
    14  H    0.181073
    15  H    0.147892
    16  O   -0.398274
    17  H    0.190612
    18  H    0.179460
 Sum of Mulliken atomic charges =   0.00000

 Dipole moment (field-independent basis, Debye):
    X=             -0.2761    Y=              1.8429    Z=             -1.9363  Tot=              2.6874
 Quadrupole moment (field-independent basis, Debye-Ang):
   XX=            -43.7587   YY=            -47.3413   ZZ=            -45.8118
   XY=              0.5380   XZ=             -0.4768   YZ=              3.0086

  Exact polarizability:  83.282  -2.567  73.358   1.371  -1.293  66.733
 Approx polarizability:  86.925  -3.146  87.703   2.413  -5.670  85.120

                     1                      2                      3
                     A                      A                      A
 Frequencies --    41.1609                78.2215               175.2885
 Red. masses --     3.4499                 2.4208                 1.1050
 Frc consts  --     0.0034                 0.0087                 0.0200
 IR Inten    --     1.9449                 0.5165                 2.0820

                     4                      5                      6
                     A                      A                      A
 Frequencies --   195.9739               214.0094               248.2312
 Red. masses --     2.6066                 1.1005                 1.7170
 Frc consts  --     0.0590                 0.0297                 0.0623
 IR Inten    --     1.8608                 0.4586                 1.4986

                     7                      8                      9
                     A                      A                      A
 Frequencies --   262.6828               302.6846               332.7417
 Red. masses --     1.7344                 1.9511                 2.2260
 Frc consts  --     0.0705                 0.1053                 0.1452
 IR Inten    --     1.4218                 1.2975                 1.1443

                    10                     11                     12
                     A                      A                      A
 Frequencies --   438.1100               507.0253               595.3769
 Red. masses --     2.3388                 1.5324                 3.4525
 Frc consts  --     0.2645                 0.2321                 0.7211
 IR Inten    --    13.8583                41.6051                21.5973

                    13                     14                     15
                     A                      A                      A
 Frequencies --   732.7526               745.7207               807.0545
 Red. masses --     3.2936                 2.1381                 1.4178
 Frc consts  --     1.0419                 0.7005                 0.5441
 IR Inten    --     1.6809                 4.6766                 2.2863

                    16                     17                     18
                     A                      A                      A
 Frequencies --   908.8866               935.8420               983.8292
 Red. masses --     2.5967                 1.1391                 1.4346
 Frc consts  --     1.2639                 0.5878                 0.8181
 IR Inten    --     0.7461                 1.2753                 0.7033

                    19                     20                     21
                     A                      A                      A
 Frequencies --  1012.7463              1076.0143              1118.8352
 Red. masses --     1.7727                 3.0096                 1.7349
 Frc consts  --     1.0712                 2.0530                 1.2795
 IR Inten    --    23.2167                 3.9638                35.1699

                    22                     23                     24
                     A                      A                      A
 Frequencies --  1124.0534              1156.0864              1205.8048
 Red. masses --     2.3332                 2.2275                 1.8390
 Frc consts  --     1.7369                 1.7541                 1.5754
 IR Inten    --     6.1532                37.7714                10.0074

                    25                     26                     27
                     A                      A                      A
 Frequencies --  1261.5635              1269.8067              1337.2568
 Red. masses --     1.3757                 1.1931                 1.3705
 Frc consts  --     1.2900                 1.1334                 1.4440
 IR Inten    --    16.7539                 3.4353                 0.9592

                    28                     29                     30
                     A                      A                      A
 Frequencies --  1375.7605              1396.9153              1417.4482
 Red. masses --     1.7081                 1.2516                 1.2259
 Frc consts  --     1.9048                 1.4390                 1.4511
 IR Inten    --    19.0033                 5.1764                13.1512

                    31                     32                     33
                     A                      A                      A
 Frequencies --  1461.7200              1478.2706              1490.3935
 Red. masses --     1.1144                 1.1544                 1.0449
 Frc consts  --     1.4029                 1.4863                 1.3675
 IR Inten    --     3.8584                 3.5561                 4.5181

                    34                     35                     36
                     A                      A                      A
 Frequencies --  1496.4532              1504.9082              1520.1868
 Red. masses --     1.0431                 1.0529                 1.0598
 Frc consts  --     1.3763                 1.4049                 1.4429
 IR Inten    --     0.4305                 8.2439                14.7869

                    37                     38                     39
                     A                      A                      A
 Frequencies --  1843.1309              3047.5637              3050.2901
 Red. masses --    10.9992                 1.0615                 1.0368
 Frc consts  --    22.0152                 5.8085                 5.6835
 IR Inten    --   199.4220                 8.4435                13.6058

                    40                     41                     42
                     A                      A                      A
 Frequencies --  3053.3637              3054.9016              3115.3228
 Red. masses --     1.0375                 1.0762                 1.1033
 Frc consts  --     5.6992                 5.9174                 6.3089
 IR Inten    --    17.2656                17.7440                 3.9256

                    43                     44                     45
                     A                      A                      A
 Frequencies --  3126.7034              3128.5548              3130.3954
 Red. masses --     1.1033                 1.1031                 1.1031
 Frc consts  --     6.3550                 6.3611                 6.3687
 IR Inten    --     5.9961                22.2714                15.0793

                    46                     47                     48
                     A                      A                      A
 Frequencies --  3135.0058              3173.6145              3279.7720
 Red. masses --     1.1027                 1.0505                 1.1198
 Frc consts  --     6.3852                 6.2341                 7.0970
 IR Inten    --    14.8429                 4.9684                 2.1493

 - Thermochemistry -
 -------------------
 Temperature   298.150 Kelvin.  Pressure   1.00000 Atm.
 Atom     1 has atomic number  6 and mass  12.00000

 Molecular mass:    99.08099 amu.
 Principal axes and moments of inertia in atomic units:
                           1         2         3
     Eigenvalues --   494.94532 917.989071082.83975
           X            0.99999  -0.00162  -0.00362
           Y            0.00196   0.99516   0.09822
           Z            0.00344  -0.09823   0.99516
 This molecule is an asymmetric top.
 Rotational symmetry number  1.
 Warning -- assumption of classical behavior for rotation
           may cause significant error
 Rotational temperatures (Kelvin)      0.17500     0.09435     0.07999
 Rotational constants (GHZ):           3.64634     1.96597     1.66667
 Zero-point vibrational energy     408814.4 (Joules/Mol)
                                   97.70899 (Kcal/Mol)
 Warning -- explicit consideration of  12 degrees of freedom as
           vibrations may cause significant error
 Vibrational temperatures:     59.22   112.54   252.20   281.96   307.91
          (Kelvin)            357.15   377.94   435.50   478.74   630.34
                              729.50   856.61  1054.27  1072.92  1161.17
                             1307.68  1346.47  1415.51  1457.11  1548.14
                             1609.75  1617.26  1663.35  1734.88  1815.11
                             1826.97  1924.01  1979.41  2009.85  2039.39
                             2103.09  2126.90  2144.34  2153.06  2165.22
                             2187.21  2651.85  4384.76  4388.68  4393.10
                             4395.32  4482.25  4498.62  4501.29  4503.94
                             4510.57  4566.12  4718.85

 Zero-point correction=                           0.155709 (Hartree/Particle)
 Thermal correction to Energy=                    0.164935
 Thermal correction to Enthalpy=                  0.165879
 Thermal correction to Gibbs Free Energy=         0.121179
 Sum of electronic and zero-point Energies=           -310.223159
 Sum of electronic and thermal Energies=              -310.213933
 Sum of electronic and thermal Enthalpies=            -310.212989
 Sum of electronic and thermal Free Energies=         -310.257690

                     E (Thermal)             CV                S
                      KCal/Mol        Cal/Mol-Kelvin    Cal/Mol-Kelvin
 Total                  103.498             32.276             94.081
 Electronic               0.000              0.000              1.377
 Translational            0.889              2.981             39.691
 Rotational               0.889              2.981             27.689
 Vibrational            101.721             26.314             25.324
 Vibration     1          0.594              1.981              5.202
 Vibration     2          0.600              1.964              3.935
 Vibration     3          0.627              1.873              2.378
 Vibration     4          0.636              1.845              2.171
 Vibration     5          0.644              1.820              2.009
 Vibration     6          0.662              1.766              1.743
 Vibration     7          0.670              1.741              1.644
 Vibration     8          0.694              1.669              1.402
 Vibration     9          0.715              1.610              1.247
 Vibration    10          0.798              1.387              0.833
 Vibration    11          0.862              1.234              0.641
 Vibration    12          0.953              1.042              0.458

 Normal termination of Gaussian 09 at Tue Mar 14 23:17:41 2017.
