 Gaussian 09, Revision B.01,
 Gaussian 09:  EM64L-G09RevB.01 12-Aug-2010

 --------------------------------------------------------------
 # m062x/6-311+g(2df,2p) opt=(verytight,gdiis) freq IOP(2/16=3)
 --------------------------------------------------------------

 ---------------------------------
 InChI=1S/C2H5O/c1-3-2/h1H2,2H3/u1
 ---------------------------------
 Symbolic Z-matrix:
 Charge =  0 Multiplicity = 2

 SCF Done:  E(UM062X) =  -154.321815751     A.U. after   12 cycles
 SCF Done:  E(UM062X) =  -154.330393622     A.U. after   13 cycles
 SCF Done:  E(UM062X) =  -154.333653980     A.U. after   11 cycles
 SCF Done:  E(UM062X) =  -154.334194076     A.U. after   12 cycles
 SCF Done:  E(UM062X) =  -154.334387674     A.U. after   12 cycles
 SCF Done:  E(UM062X) =  -154.334531898     A.U. after   14 cycles
 SCF Done:  E(UM062X) =  -154.336584855     A.U. after   14 cycles
 SCF Done:  E(UM062X) =  -154.332553522     A.U. after   14 cycles
 SCF Done:  E(UM062X) =  -154.341071952     A.U. after   14 cycles
 SCF Done:  E(UM062X) =  -154.342350615     A.U. after   12 cycles
 SCF Done:  E(UM062X) =  -154.343108980     A.U. after   13 cycles
 SCF Done:  E(UM062X) =  -154.343159603     A.U. after    9 cycles
 SCF Done:  E(UM062X) =  -154.343332634     A.U. after   12 cycles
 SCF Done:  E(UM062X) =  -154.343347472     A.U. after   11 cycles
 SCF Done:  E(UM062X) =  -154.343353660     A.U. after   11 cycles
 SCF Done:  E(UM062X) =  -154.343354313     A.U. after    9 cycles
 SCF Done:  E(UM062X) =  -154.343354338     A.U. after    7 cycles
 SCF Done:  E(UM062X) =  -154.343354334     A.U. after    7 cycles
 SCF Done:  E(UM062X) =  -154.343354334     A.U. after    3 cycles
 Optimization completed.
    -- Stationary point found.
 Normal termination of Gaussian 09 at Tue Mar  7 16:12:02 2017.

 ----------------------------------------------------------------------
 #N Geom=AllCheck Guess=TCheck SCRF=Check Test GenChk UM062X/6-311+G(2d
 f,2p) Freq
 ----------------------------------------------------------------------

 InChI=1S/C2H5O/c1-3-2/h1H2,2H3/u1
 ---------------------------------
 Redundant internal coordinates taken from checkpoint file:
 /gss_gpfs_scratch/westgroup/rwest-autotst-1/Gau-32543.chk
 Charge =  0 Multiplicity = 2

                         Standard orientation:
 ---------------------------------------------------------------------
 Center     Atomic      Atomic             Coordinates (Angstroms)
 Number     Number       Type             X           Y           Z
 ---------------------------------------------------------------------
      1          6           0        1.129217    0.167893    0.013660
      2          6           0       -1.192280    0.225226    0.066157
      3          8           0       -0.090478   -0.541404   -0.039095
      4          1           0        1.236703    0.670209    0.977307
      5          1           0        1.175654    0.909743   -0.787953
      6          1           0        1.928511   -0.556045   -0.114143
      7          1           0       -1.119932    1.267119   -0.221361
      8          1           0       -2.118734   -0.318502   -0.019990
 ---------------------------------------------------------------------

 SCF Done:  E(UM062X) =  -154.343354334     A.U. after    1 cycles

 The electronic state is 2-A.
 Alpha  occ. eigenvalues --  -19.65894 -10.58823 -10.57761  -1.19823  -0.83060
 Alpha  occ. eigenvalues --   -0.72107  -0.57726  -0.57003  -0.55481  -0.46204
 Alpha  occ. eigenvalues --   -0.42676  -0.40834  -0.23292
 Alpha virt. eigenvalues --    0.02019   0.04031   0.04356   0.05507   0.06903
 Alpha virt. eigenvalues --    0.07522   0.10485   0.13400   0.15840   0.18010
 Alpha virt. eigenvalues --    0.19831   0.21860   0.22490   0.24815   0.26180

  Beta  occ. eigenvalues --  -19.65458 -10.58832 -10.57065  -1.18422  -0.82029
  Beta  occ. eigenvalues --   -0.69759  -0.56936  -0.55769  -0.53495  -0.45676
  Beta  occ. eigenvalues --   -0.40970  -0.38512
  Beta virt. eigenvalues --   -0.01267   0.01671   0.03733   0.04281   0.05917
  Beta virt. eigenvalues --    0.06404   0.07646   0.11298   0.12346   0.15307
  Beta virt. eigenvalues --    0.18100   0.19912   0.21900   0.22878   0.25222

 Mulliken atomic charges:
              1
     1  C   -0.252961
     2  C   -0.307964
     3  O   -0.107007
     4  H    0.129857
     5  H    0.117869
     6  H    0.127818
     7  H    0.138445
     8  H    0.153941
 Sum of Mulliken atomic charges =   0.00000

 Dipole moment (field-independent basis, Debye):
    X=              0.8879    Y=              1.0233    Z=             -0.3101  Tot=              1.3899
 Quadrupole moment (field-independent basis, Debye-Ang):
   XX=            -17.0250   YY=            -20.0087   ZZ=            -20.8607
   XY=              0.1869   XZ=              0.5054   YZ=             -0.4214

  Exact polarizability:  37.760  -0.763  28.177  -0.328   0.125  28.843
 Approx polarizability:  36.175  -0.661  32.421  -0.117   0.146  31.214

                     1                      2                      3
                     A                      A                      A
 Frequencies --   180.1065               290.8848               444.3003
 Red. masses --     1.0957                 1.2609                 2.3765
 Frc consts  --     0.0209                 0.0629                 0.2764
 IR Inten    --     1.9060                 5.9104                 3.8560

                     4                      5                      6
                     A                      A                      A
 Frequencies --   587.3212              1006.9798              1148.2826
 Red. masses --     1.2964                 3.5923                 1.2620
 Frc consts  --     0.2635                 2.1462                 0.9804
 IR Inten    --    49.8418                31.2549                 5.9789

                     7                      8                      9
                     A                      A                      A
 Frequencies --  1183.2512              1268.2886              1324.5015
 Red. masses --     1.2786                 1.6142                 4.9219
 Frc consts  --     1.0547                 1.5299                 5.0873
 IR Inten    --     2.8892                19.5955               190.6774

                    10                     11                     12
                     A                      A                      A
 Frequencies --  1465.3283              1503.7190              1506.9659
 Red. masses --     1.1079                 1.0620                 1.1345
 Frc consts  --     1.4016                 1.4149                 1.5180
 IR Inten    --     2.5880                 7.9709                 4.2014

                    13                     14                     15
                     A                      A                      A
 Frequencies --  1516.8091              3036.3162              3100.7024
 Red. masses --     1.1320                 1.0358                 1.1038
 Frc consts  --     1.5345                 5.6261                 6.2523
 IR Inten    --    21.0178                44.2645                32.5135

                    16                     17                     18
                     A                      A                      A
 Frequencies --  3135.9961              3168.7642              3281.2391
 Red. masses --     1.0480                 1.1005                 1.1219
 Frc consts  --     6.0727                 6.5107                 7.1169
 IR Inten    --    18.5528                11.6807                 5.9334

 - Thermochemistry -
 -------------------
 Temperature   298.150 Kelvin.  Pressure   1.00000 Atm.
 Atom     1 has atomic number  6 and mass  12.00000

 Molecular mass:    45.03404 amu.
 Principal axes and moments of inertia in atomic units:
                           1         2         3
     Eigenvalues --    37.83892 166.60759 192.18772
           X            0.99996   0.00394   0.00788
           Y           -0.00363   0.99925  -0.03861
           Z           -0.00802   0.03858   0.99922
 This molecule is an asymmetric top.
 Rotational symmetry number  1.
 Rotational temperatures (Kelvin)      2.28901     0.51987     0.45067
 Rotational constants (GHZ):          47.69537    10.83229     9.39051
 Zero-point vibrational energy     174354.3 (Joules/Mol)
                                   41.67167 (Kcal/Mol)
 Warning -- explicit consideration of   4 degrees of freedom as
           vibrations may cause significant error
 Vibrational temperatures:    259.13   418.52   639.25   845.02  1448.82
          (Kelvin)           1652.12  1702.43  1824.78  1905.66  2108.28
                             2163.51  2168.19  2182.35  4368.58  4461.21
                             4511.99  4559.14  4720.97

 Zero-point correction=                           0.066408 (Hartree/Particle)
 Thermal correction to Energy=                    0.070818
 Thermal correction to Enthalpy=                  0.071762
 Thermal correction to Gibbs Free Energy=         0.040494
 Sum of electronic and zero-point Energies=           -154.276946
 Sum of electronic and thermal Energies=              -154.272537
 Sum of electronic and thermal Enthalpies=            -154.271592
 Sum of electronic and thermal Free Energies=         -154.302861

                     E (Thermal)             CV                S
                      KCal/Mol        Cal/Mol-Kelvin    Cal/Mol-Kelvin
 Total                   44.439             13.382             65.809
 Electronic               0.000              0.000              1.377
 Translational            0.889              2.981             37.340
 Rotational               0.889              2.981             21.721
 Vibrational             42.661              7.420              5.371
 Vibration     1          0.629              1.867              2.327
 Vibration     2          0.687              1.691              1.469
 Vibration     3          0.804              1.373              0.813
 Vibration     4          0.944              1.059              0.472

 Normal termination of Gaussian 09 at Tue Mar  7 16:14:40 2017.
