 Gaussian 09, Revision B.01,
 Gaussian 09:  EM64L-G09RevB.01 12-Aug-2010

 --------------------------------------------------------------
 # m062x/6-311+g(2df,2p) opt=(verytight,gdiis) freq IOP(2/16=3)
 --------------------------------------------------------------

 --------------------------------------------
 InChI=1S/C6H11O/c1-3-4-5-6(2)7/h2-5H2,1H3/u2
 --------------------------------------------
 Symbolic Z-matrix:
 Charge =  0 Multiplicity = 2

 SCF Done:  E(UM062X) =  -310.358196294     A.U. after   16 cycles
 SCF Done:  E(UM062X) =  -310.366157685     A.U. after   14 cycles
 SCF Done:  E(UM062X) =  -310.368104542     A.U. after   14 cycles
 SCF Done:  E(UM062X) =  -310.368107153     A.U. after   14 cycles
 SCF Done:  E(UM062X) =  -310.369011866     A.U. after   17 cycles
 SCF Done:  E(UM062X) =  -310.370994459     A.U. after   16 cycles
 SCF Done:  E(UM062X) =  -310.378262701     A.U. after   16 cycles
 SCF Done:  E(UM062X) =  -310.325242198     A.U. after   18 cycles
 SCF Done:  E(UM062X) =  -310.343741955     A.U. after   17 cycles
 SCF Done:  E(UM062X) =  -310.362143600     A.U. after   17 cycles
 SCF Done:  E(UM062X) =  -310.386509023     A.U. after    4 cycles
 SCF Done:  E(UM062X) =  -310.386509039     A.U. after    5 cycles
 SCF Done:  E(UM062X) =  -310.386509032     A.U. after    5 cycles
 SCF Done:  E(UM062X) =  -310.386509020     A.U. after    5 cycles
 SCF Done:  E(UM062X) =  -310.386509023     A.U. after    4 cycles
 SCF Done:  E(UM062X) =  -310.386509025     A.U. after    3 cycles
 SCF Done:  E(UM062X) =  -310.386509030     A.U. after    5 cycles
 SCF Done:  E(UM062X) =  -310.386509027     A.U. after    5 cycles
 SCF Done:  E(UM062X) =  -310.386509026     A.U. after    3 cycles
 Optimization completed.
    -- Stationary point found.
 Normal termination of Gaussian 09 at Tue Mar 14 23:53:08 2017.

 ----------------------------------------------------------------------
 #N Geom=AllCheck Guess=TCheck SCRF=Check Test GenChk UM062X/6-311+G(2d
 f,2p) Freq
 ----------------------------------------------------------------------

 InChI=1S/C6H11O/c1-3-4-5-6(2)7/h2-5H2,1H3/u2
 --------------------------------------------
 Redundant internal coordinates taken from checkpoint file:
 /gss_gpfs_scratch/westgroup/rwest-autotst-1/Gau-27744.chk
 Charge =  0 Multiplicity = 2

                         Standard orientation:
 ---------------------------------------------------------------------
 Center     Atomic      Atomic             Coordinates (Angstroms)
 Number     Number       Type             X           Y           Z
 ---------------------------------------------------------------------
      1          6           0       -0.710185   -0.019535   -0.198406
      2          6           0       -2.070015    0.059240    0.484388
      3          6           0        0.453685   -0.009521    0.797404
      4          6           0       -3.221194    0.027411   -0.513302
      5          6           0        1.769386   -0.109597    0.057003
      6          6           0        2.459574    1.102819   -0.291969
      7          1           0       -2.165144   -0.772061    1.187401
      8          1           0       -2.121085    0.974224    1.080504
      9          1           0       -0.603659    0.818209   -0.895163
     10          1           0       -0.647677   -0.931880   -0.796871
     11          1           0        0.376173   -0.869987    1.462277
     12          1           0        0.418090    0.899490    1.401482
     13          1           0       -3.203722   -0.894476   -1.095838
     14          1           0       -3.152199    0.861598   -1.212971
     15          1           0       -4.186740    0.089678   -0.012927
     16          8           0        2.217199   -1.198140   -0.283641
     17          1           0        3.372719    1.032674   -0.863628
     18          1           0        2.088158    2.072744    0.004155
 ---------------------------------------------------------------------

 SCF Done:  E(UM062X) =  -310.386509026     A.U. after    1 cycles

 The electronic state is 2-A.
 Alpha  occ. eigenvalues --  -19.61555 -10.62174 -10.57860 -10.54166 -10.54048
 Alpha  occ. eigenvalues --  -10.53553 -10.52537  -1.16744  -0.91567  -0.86775
 Alpha  occ. eigenvalues --   -0.82332  -0.74027  -0.67304  -0.62358  -0.56441
 Alpha  occ. eigenvalues --   -0.55874  -0.53128  -0.51947  -0.48677  -0.47861
 Alpha  occ. eigenvalues --   -0.47808  -0.44620  -0.42144  -0.40242  -0.40147
 Alpha  occ. eigenvalues --   -0.39364  -0.33251  -0.31729
 Alpha virt. eigenvalues --    0.00978   0.02244   0.02818   0.03736   0.04374
 Alpha virt. eigenvalues --    0.04460   0.05519   0.05736   0.06663   0.06823
 Alpha virt. eigenvalues --    0.08084   0.08485   0.08603   0.09806   0.10286

  Beta  occ. eigenvalues --  -19.61051 -10.62283 -10.57335 -10.54167 -10.54048
  Beta  occ. eigenvalues --  -10.53553 -10.52537  -1.15386  -0.91407  -0.85580
  Beta  occ. eigenvalues --   -0.80459  -0.73689  -0.67272  -0.61505  -0.56209
  Beta  occ. eigenvalues --   -0.55055  -0.52567  -0.51199  -0.48118  -0.47563
  Beta  occ. eigenvalues --   -0.46070  -0.43655  -0.41979  -0.40216  -0.39341
  Beta  occ. eigenvalues --   -0.39043  -0.32215
  Beta virt. eigenvalues --   -0.08799   0.00639   0.02106   0.02641   0.03698
  Beta virt. eigenvalues --    0.04380   0.04655   0.05584   0.06223   0.06726
  Beta virt. eigenvalues --    0.06893   0.07934   0.08542   0.09005   0.09765

 Mulliken atomic charges:
              1
     1  C   -0.286450
     2  C   -0.254931
     3  C   -0.248921
     4  C   -0.546075
     5  C    0.233073
     6  C   -0.345506
     7  H    0.159895
     8  H    0.154323
     9  H    0.164408
    10  H    0.191896
    11  H    0.189364
    12  H    0.164658
    13  H    0.141352
    14  H    0.136666
    15  H    0.140935
    16  O   -0.367575
    17  H    0.195307
    18  H    0.177580
 Sum of Mulliken atomic charges =   0.00000

 Dipole moment (field-independent basis, Debye):
    X=             -1.2561    Y=              2.8405    Z=              0.6242  Tot=              3.1679
 Quadrupole moment (field-independent basis, Debye-Ang):
   XX=            -46.8926   YY=            -45.9963   ZZ=            -44.9613
   XY=              7.3695   XZ=              0.2394   YZ=             -1.1041

  Exact polarizability:  88.337   1.792  73.892  -2.195   0.039  64.476
 Approx polarizability:  85.167  -0.929  94.215  -2.947   1.511  79.056

                     1                      2                      3
                     A                      A                      A
 Frequencies --    20.3555                70.1833               118.9728
 Red. masses --     2.9969                 1.9237                 2.2281
 Frc consts  --     0.0007                 0.0056                 0.0186
 IR Inten    --     5.9098                 1.6449                 0.1712

                     4                      5                      6
                     A                      A                      A
 Frequencies --   131.6429               238.4654               283.7404
 Red. masses --     3.4052                 1.1364                 3.2611
 Frc consts  --     0.0348                 0.0381                 0.1547
 IR Inten    --     0.7396                 0.0751                 0.1660

                     7                      8                      9
                     A                      A                      A
 Frequencies --   360.8494               386.1895               418.9501
 Red. masses --     1.3312                 1.8185                 2.2751
 Frc consts  --     0.1021                 0.1598                 0.2353
 IR Inten    --     0.1058                 0.5973                 1.5944

                    10                     11                     12
                     A                      A                      A
 Frequencies --   542.3650               630.4499               731.3214
 Red. masses --     3.0611                 2.2801                 1.0760
 Frc consts  --     0.5305                 0.5339                 0.3391
 IR Inten    --    15.2060                 6.1643                 3.1790

                    13                     14                     15
                     A                      A                      A
 Frequencies --   784.1267               792.0799               867.6081
 Red. masses --     1.8559                 1.2122                 3.3135
 Frc consts  --     0.6723                 0.4481                 1.4695
 IR Inten    --    22.8960                 1.2950                 0.4999

                    16                     17                     18
                     A                      A                      A
 Frequencies --   921.7061               929.7316               999.0268
 Red. masses --     1.7170                 1.3507                 1.4502
 Frc consts  --     0.8594                 0.6879                 0.8528
 IR Inten    --     1.1641                 1.2089                 3.3694

                    19                     20                     21
                     A                      A                      A
 Frequencies --  1031.9504              1081.9944              1118.3535
 Red. masses --     3.5671                 2.3128                 1.5736
 Frc consts  --     2.2381                 1.5953                 1.1596
 IR Inten    --     2.1042                 0.8347                12.8801

                    22                     23                     24
                     A                      A                      A
 Frequencies --  1129.8127              1225.0607              1259.4197
 Red. masses --     2.1455                 1.6795                 1.3922
 Frc consts  --     1.6136                 1.4851                 1.3011
 IR Inten    --     7.6232                11.7700                 8.2289

                    25                     26                     27
                     A                      A                      A
 Frequencies --  1293.4019              1322.7542              1333.4806
 Red. masses --     1.5318                 1.3242                 1.0720
 Frc consts  --     1.5098                 1.3651                 1.1232
 IR Inten    --    20.5161                13.0373                 1.2121

                    28                     29                     30
                     A                      A                      A
 Frequencies --  1362.0946              1400.1380              1422.2935
 Red. masses --     1.5803                 1.6307                 1.2609
 Frc consts  --     1.7274                 1.8835                 1.5029
 IR Inten    --    34.0901                 1.2932                 4.1020

                    31                     32                     33
                     A                      A                      A
 Frequencies --  1472.8096              1485.1242              1491.5910
 Red. masses --     1.3357                 1.0997                 1.0718
 Frc consts  --     1.7070                 1.4291                 1.4050
 IR Inten    --    39.5497                 1.4489                 1.9750

                    34                     35                     36
                     A                      A                      A
 Frequencies --  1500.7420              1507.5859              1515.0541
 Red. masses --     1.0696                 1.0559                 1.0809
 Frc consts  --     1.4193                 1.4139                 1.4618
 IR Inten    --     3.3794                 6.8046                10.9122

                    37                     38                     39
                     A                      A                      A
 Frequencies --  1649.9462              3024.9814              3041.4100
 Red. masses --    10.2856                 1.0640                 1.0597
 Frc consts  --    16.4976                 5.7362                 5.7754
 IR Inten    --   102.8574                 6.1851                21.2971

                    40                     41                     42
                     A                      A                      A
 Frequencies --  3048.0610              3062.4779              3067.4690
 Red. masses --     1.0371                 1.0694                 1.0876
 Frc consts  --     5.6769                 5.9095                 6.0293
 IR Inten    --    30.3185                10.0405                 8.5220

                    43                     44                     45
                     A                      A                      A
 Frequencies --  3086.6490              3116.7144              3119.6251
 Red. masses --     1.1012                 1.1033                 1.1052
 Frc consts  --     6.1817                 6.3144                 6.3369
 IR Inten    --    11.7968                12.6429                34.0648

                    46                     47                     48
                     A                      A                      A
 Frequencies --  3124.9477              3173.0147              3288.1495
 Red. masses --     1.1023                 1.0514                 1.1206
 Frc consts  --     6.3422                 6.2370                 7.1382
 IR Inten    --    26.9227                 1.2117                 0.7655

 - Thermochemistry -
 -------------------
 Temperature   298.150 Kelvin.  Pressure   1.00000 Atm.
 Atom     1 has atomic number  6 and mass  12.00000

 Molecular mass:    99.08099 amu.
 Principal axes and moments of inertia in atomic units:
                           1         2         3
     Eigenvalues --   275.767521659.444591735.11033
           X            0.99983   0.01812   0.00372
           Y           -0.01797   0.99918  -0.03626
           Z           -0.00437   0.03619   0.99934
 This molecule is an asymmetric top.
 Rotational symmetry number  1.
 Rotational temperatures (Kelvin)      0.31408     0.05219     0.04992
 Rotational constants (GHZ):           6.54443     1.08756     1.04013
 Zero-point vibrational energy     412621.2 (Joules/Mol)
                                   98.61882 (Kcal/Mol)
 Warning -- explicit consideration of  10 degrees of freedom as
           vibrations may cause significant error
 Vibrational temperatures:     29.29   100.98   171.18   189.40   343.10
          (Kelvin)            408.24   519.18   555.64   602.78   780.34
                              907.08  1052.21  1128.18  1139.62  1248.29
                             1326.13  1337.67  1437.38  1484.74  1556.75
                             1609.06  1625.55  1762.59  1812.02  1860.91
                             1903.15  1918.58  1959.75  2014.48  2046.36
                             2119.04  2136.76  2146.06  2159.23  2169.08
                             2179.82  2373.90  4352.27  4375.91  4385.47
                             4406.22  4413.40  4440.99  4484.25  4488.44
                             4496.10  4565.25  4730.91

 Zero-point correction=                           0.157159 (Hartree/Particle)
 Thermal correction to Energy=                    0.165985
 Thermal correction to Enthalpy=                  0.166929
 Thermal correction to Gibbs Free Energy=         0.121751
 Sum of electronic and zero-point Energies=           -310.229350
 Sum of electronic and thermal Energies=              -310.220524
 Sum of electronic and thermal Enthalpies=            -310.219580
 Sum of electronic and thermal Free Energies=         -310.264758

                     E (Thermal)             CV                S
                      KCal/Mol        Cal/Mol-Kelvin    Cal/Mol-Kelvin
 Total                  104.157             30.595             95.086
 Electronic               0.000              0.000              1.377
 Translational            0.889              2.981             39.691
 Rotational               0.889              2.981             28.164
 Vibrational            102.380             24.633             25.854
 Vibration     1          0.593              1.986              6.599
 Vibration     2          0.598              1.968              4.148
 Vibration     3          0.609              1.934              3.117
 Vibration     4          0.612              1.922              2.922
 Vibration     5          0.656              1.782              1.814
 Vibration     6          0.682              1.704              1.511
 Vibration     7          0.735              1.553              1.118
 Vibration     8          0.755              1.500              1.015
 Vibration     9          0.782              1.429              0.896
 Vibration    10          0.897              1.156              0.560

 Normal termination of Gaussian 09 at Wed Mar 15 00:29:21 2017.
