 Gaussian 09, Revision B.01,
 Gaussian 09:  EM64L-G09RevB.01 12-Aug-2010

 --------------------------------------------------------------
 # m062x/6-311+g(2df,2p) opt=(verytight,gdiis) freq IOP(2/16=3)
 --------------------------------------------------------------

 --------------------------------
 InChI=1S/C3H6O/c1-2-4-3-1/h1-3H2
 --------------------------------
 Symbolic Z-matrix:
 Charge =  0 Multiplicity = 1

 SCF Done:  E(RM062X) =  -193.075422975     A.U. after   10 cycles
 SCF Done:  E(RM062X) =  -193.082644099     A.U. after   11 cycles
 SCF Done:  E(RM062X) =  -193.082747238     A.U. after    8 cycles
 SCF Done:  E(RM062X) =  -193.082765351     A.U. after    7 cycles
 SCF Done:  E(RM062X) =  -193.082765627     A.U. after    6 cycles
 SCF Done:  E(RM062X) =  -193.082765654     A.U. after    5 cycles
 SCF Done:  E(RM062X) =  -193.082765657     A.U. after    4 cycles
 Optimization completed.
    -- Stationary point found.
 Normal termination of Gaussian 09 at Thu Aug  3 14:40:17 2017.

 ----------------------------------------------------------------------
 #N Geom=AllCheck Guess=TCheck SCRF=Check Test GenChk RM062X/6-311+G(2d
 f,2p) Freq
 ----------------------------------------------------------------------

 InChI=1S/C3H6O/c1-2-4-3-1/h1-3H2
 --------------------------------
 Redundant internal coordinates taken from checkpoint file:
 /gss_gpfs_scratch/harms.n/comparerTST/Gau-7751.chk
 Charge =  0 Multiplicity = 1

                         Standard orientation:
 ---------------------------------------------------------------------
 Center     Atomic      Atomic             Coordinates (Angstroms)
 Number     Number       Type             X           Y           Z
 ---------------------------------------------------------------------
      1          6           0        0.000000    1.073842   -0.000008
      2          6           0        1.030808   -0.066059    0.000009
      3          6           0       -1.030808   -0.066059    0.000009
      4          8           0        0.000000   -1.063479   -0.000013
      5          1           0        0.000000    1.699615    0.887462
      6          1           0        0.000000    1.699577   -0.887505
      7          1           0        1.658033   -0.135427   -0.889909
      8          1           0        1.657992   -0.135427    0.889955
      9          1           0       -1.657992   -0.135427    0.889955
     10          1           0       -1.658033   -0.135427   -0.889909
 ---------------------------------------------------------------------

 SCF Done:  E(RM062X) =  -193.082765657     A.U. after    1 cycles

 The electronic state is 1-A.
 Alpha  occ. eigenvalues --  -19.61590 -10.58430 -10.58430 -10.54065  -1.16700
 Alpha  occ. eigenvalues --   -0.84492  -0.78694  -0.64405  -0.58308  -0.56796
 Alpha  occ. eigenvalues --   -0.51302  -0.47232  -0.44728  -0.39079  -0.37765
 Alpha  occ. eigenvalues --   -0.32289
 Alpha virt. eigenvalues --    0.01915   0.02992   0.03284   0.04081   0.06358
 Alpha virt. eigenvalues --    0.07393   0.07560   0.07757   0.08292   0.11679
 Alpha virt. eigenvalues --    0.13816   0.13963   0.16721   0.17889   0.21445

 Mulliken atomic charges:
              1
     1  C   -0.205181
     2  C   -0.125751
     3  C   -0.125751
     4  O   -0.303700
     5  H    0.137614
     6  H    0.137616
     7  H    0.121287
     8  H    0.121288
     9  H    0.121288
    10  H    0.121287
 Sum of Mulliken atomic charges =   0.00000

 Dipole moment (field-independent basis, Debye):
    X=              0.0000    Y=              2.0170    Z=              0.0000  Tot=              2.0170
 Quadrupole moment (field-independent basis, Debye-Ang):
   XX=            -23.0489   YY=            -28.2381   ZZ=            -24.2567
   XY=              0.0000   XZ=              0.0000   YZ=              0.0000

  Exact polarizability:  41.916   0.000  36.912   0.000   0.000  34.376
 Approx polarizability:  45.643   0.000  42.422   0.000   0.000  40.695

                     1                      2                      3
                     A                      A                      A
 Frequencies --    45.5546               766.7637               810.9717
 Red. masses --     1.8641                 1.0654                 6.0206
 Frc consts  --     0.0023                 0.3691                 2.3329
 IR Inten    --     4.3323                 0.3064                 4.8279

                     4                      5                      6
                     A                      A                      A
 Frequencies --   828.5294               958.4606               968.7502
 Red. masses --     1.0889                 2.3711                 2.8050
 Frc consts  --     0.4404                 1.2834                 1.5510
 IR Inten    --     0.0000                 2.4580                31.3573

                     7                      8                      9
                     A                      A                      A
 Frequencies --  1082.3722              1098.6820              1160.8241
 Red. masses --     4.9051                11.4533                 1.6462
 Frc consts  --     3.3857                 8.1456                 1.3070
 IR Inten    --    13.9556                99.0865                 3.4707

                    10                     11                     12
                     A                      A                      A
 Frequencies --  1178.0461              1209.4813              1243.6096
 Red. masses --     1.0991                 1.2075                 1.1210
 Frc consts  --     0.8987                 1.0407                 1.0215
 IR Inten    --     0.0000                 0.0343                 0.0000

                    13                     14                     15
                     A                      A                      A
 Frequencies --  1275.3330              1323.0763              1387.4705
 Red. masses --     1.5289                 1.2776                 1.4490
 Frc consts  --     1.4651                 1.3177                 1.6435
 IR Inten    --    10.4859                 0.3941                 2.0875

                    16                     17                     18
                     A                      A                      A
 Frequencies --  1499.6732              1520.4138              1550.0997
 Red. masses --     1.1014                 1.0823                 1.1263
 Frc consts  --     1.4595                 1.4741                 1.5946
 IR Inten    --     4.2378                 0.3780                 0.0268

                    19                     20                     21
                     A                      A                      A
 Frequencies --  3060.1516              3068.0521              3107.8468
 Red. masses --     1.0531                 1.0579                 1.1145
 Frc consts  --     5.8105                 5.8670                 6.3421
 IR Inten    --   119.9165                 0.0981                51.8282

                    22                     23                     24
                     A                      A                      A
 Frequencies --  3108.9996              3120.2822              3176.3882
 Red. masses --     1.1110                 1.0596                 1.1104
 Frc consts  --     6.3272                 6.0781                 6.6010
 IR Inten    --     0.0000                18.3469                21.3835

 - Thermochemistry -
 -------------------
 Temperature   298.150 Kelvin.  Pressure   1.00000 Atm.
 Atom     1 has atomic number  6 and mass  12.00000

 Molecular mass:    58.04186 amu.
 Principal axes and moments of inertia in atomic units:
                           1         2         3
     Eigenvalues --   147.71327 152.02434 265.59619
           X            0.00000   1.00000   0.00000
           Y            1.00000   0.00000   0.00000
           Z            0.00000   0.00000   1.00000
 This molecule is an asymmetric top.
 Rotational symmetry number  1.
 Rotational temperatures (Kelvin)      0.58636     0.56974     0.32611
 Rotational constants (GHZ):          12.21787    11.87140     6.79506
 Zero-point vibrational energy     230579.2 (Joules/Mol)
                                   55.10975 (Kcal/Mol)
 Warning -- explicit consideration of   1 degrees of freedom as
           vibrations may cause significant error
 Vibrational temperatures:     65.54  1103.20  1166.81  1192.07  1379.01
          (Kelvin)           1393.81  1557.29  1580.76  1670.16  1694.94
                             1740.17  1789.27  1834.92  1903.61  1996.26
                             2157.69  2187.53  2230.24  4402.87  4414.24
                             4471.49  4473.15  4489.38  4570.11

 Zero-point correction=                           0.087823 (Hartree/Particle)
 Thermal correction to Energy=                    0.091983
 Thermal correction to Enthalpy=                  0.092927
 Thermal correction to Gibbs Free Energy=         0.060787
 Sum of electronic and zero-point Energies=           -192.994943
 Sum of electronic and thermal Energies=              -192.990783
 Sum of electronic and thermal Enthalpies=            -192.989839
 Sum of electronic and thermal Free Energies=         -193.021978

                     E (Thermal)             CV                S
                      KCal/Mol        Cal/Mol-Kelvin    Cal/Mol-Kelvin
 Total                   57.720             12.745             67.643
 Electronic               0.000              0.000              0.000
 Translational            0.889              2.981             38.096
 Rotational               0.889              2.981             23.304
 Vibrational             55.943              6.783              6.242
 Vibration     1          0.595              1.979              5.002

 Normal termination of Gaussian 09 at Thu Aug  3 14:43:39 2017.
