 Gaussian 09, Revision B.01,
 Gaussian 09:  EM64L-G09RevB.01 12-Aug-2010

 --------------------------------------------------------------
 # m062x/6-311+g(2df,2p) opt=(verytight,gdiis) freq IOP(2/16=3)
 --------------------------------------------------------------

 -------------------------------------
 InChI=1S/C4H5/c1-3-4-2/h1,3-4H,2H2/u1
 -------------------------------------
 Symbolic Z-matrix:
 Charge =  0 Multiplicity = 2

 SCF Done:  E(UM062X) =  -155.270874917     A.U. after   16 cycles
 SCF Done:  E(UM062X) =  -155.276565049     A.U. after   17 cycles
 SCF Done:  E(UM062X) =  -155.276918174     A.U. after   17 cycles
 SCF Done:  E(UM062X) =  -155.276936691     A.U. after   16 cycles
 SCF Done:  E(UM062X) =  -155.276939235     A.U. after   16 cycles
 SCF Done:  E(UM062X) =  -155.276939363     A.U. after    7 cycles
 SCF Done:  E(UM062X) =  -155.276939381     A.U. after   16 cycles
 SCF Done:  E(UM062X) =  -155.276939382     A.U. after   16 cycles
 SCF Done:  E(UM062X) =  -155.276939382     A.U. after   16 cycles
 Optimization completed.
    -- Stationary point found.
 Normal termination of Gaussian 09 at Tue Aug  1 18:24:40 2017.

 ----------------------------------------------------------------------
 #N Geom=AllCheck Guess=TCheck SCRF=Check Test GenChk UM062X/6-311+G(2d
 f,2p) Freq
 ----------------------------------------------------------------------

 InChI=1S/C4H5/c1-3-4-2/h1,3-4H,2H2/u1
 -------------------------------------
 Redundant internal coordinates taken from checkpoint file:
 /gss_gpfs_scratch/harms.n/comparerTST/Gau-28070.chk
 Charge =  0 Multiplicity = 2

                         Standard orientation:
 ---------------------------------------------------------------------
 Center     Atomic      Atomic             Coordinates (Angstroms)
 Number     Number       Type             X           Y           Z
 ---------------------------------------------------------------------
      1          6           0       -0.559976   -0.425404    0.000000
      2          6           0        0.687925    0.336873   -0.000001
      3          6           0       -1.761323    0.142944    0.000000
      4          6           0        1.885214   -0.196533    0.000000
      5          1           0       -0.463879   -1.505000    0.000000
      6          1           0        0.589339    1.424526    0.000000
      7          1           0       -1.871803    1.220390    0.000000
      8          1           0       -2.665997   -0.447937    0.000000
      9          1           0        2.901302    0.160745    0.000001
 ---------------------------------------------------------------------

 SCF Done:  E(UM062X) =  -155.276939382     A.U. after    1 cycles

 The electronic state is 2-A.
 Alpha  occ. eigenvalues --  -10.56646 -10.55311 -10.55087 -10.53856  -0.91828
 Alpha  occ. eigenvalues --   -0.83874  -0.69098  -0.63047  -0.55968  -0.52215
 Alpha  occ. eigenvalues --   -0.47553  -0.42949  -0.40336  -0.30535  -0.30490
 Alpha virt. eigenvalues --   -0.00620   0.02017   0.02917   0.03849   0.05729
 Alpha virt. eigenvalues --    0.05732   0.06887   0.07248   0.09879   0.10224
 Alpha virt. eigenvalues --    0.10712   0.10978   0.14318   0.15693   0.16006

  Beta  occ. eigenvalues --  -10.55706 -10.55390 -10.54997 -10.53888  -0.91044
  Beta  occ. eigenvalues --   -0.82454  -0.67773  -0.61658  -0.55025  -0.50923
  Beta  occ. eigenvalues --   -0.47002  -0.42449  -0.39881  -0.29231
  Beta virt. eigenvalues --   -0.05482   0.00274   0.02160   0.03020   0.03856
  Beta virt. eigenvalues --    0.05459   0.05784   0.07284   0.07601   0.08859
  Beta virt. eigenvalues --    0.10301   0.10902   0.11868   0.14379   0.15585

 Mulliken atomic charges:
              1
     1  C    0.039549
     2  C   -0.015398
     3  C   -0.392496
     4  C   -0.360033
     5  H    0.156814
     6  H    0.144259
     7  H    0.127716
     8  H    0.138338
     9  H    0.161251
 Sum of Mulliken atomic charges =   0.00000

 Dipole moment (field-independent basis, Debye):
    X=             -0.0281    Y=              0.6136    Z=              0.0000  Tot=              0.6143
 Quadrupole moment (field-independent basis, Debye-Ang):
   XX=            -21.6393   YY=            -23.4854   ZZ=            -28.4287
   XY=              1.1995   XZ=              0.0000   YZ=              0.0000

  Exact polarizability:  80.370  -7.203  41.638   0.000   0.000  33.315
 Approx polarizability:  92.195 -12.367  49.924   0.000   0.000  40.145

                     1                      2                      3
                     A                      A                      A
 Frequencies --   170.3468               302.4636               515.1024
 Red. masses --     2.9895                 2.3778                 2.9965
 Frc consts  --     0.0511                 0.1282                 0.4684
 IR Inten    --     0.0404                 7.3031                 2.3335

                     4                      5                      6
                     A                      A                      A
 Frequencies --   587.7961               767.7483               812.1397
 Red. masses --     1.0877                 1.3608                 1.4065
 Frc consts  --     0.2214                 0.4726                 0.5466
 IR Inten    --    50.6447                12.8601                12.2963

                     7                      8                      9
                     A                      A                      A
 Frequencies --   899.2719               955.7905               977.0525
 Red. masses --     1.5853                 1.4167                 1.3264
 Frc consts  --     0.7553                 0.7625                 0.7460
 IR Inten    --     1.1265                 1.4720                53.4270

                    10                     11                     12
                     A                      A                      A
 Frequencies --  1044.0924              1185.1930              1251.1152
 Red. masses --     1.1366                 2.2535                 1.2133
 Frc consts  --     0.7300                 1.8651                 1.1190
 IR Inten    --    10.7782                 3.7113                 1.2754

                    13                     14                     15
                     A                      A                      A
 Frequencies --  1318.5839              1449.3481              1651.4867
 Red. masses --     1.3307                 1.2262                 5.7968
 Frc consts  --     1.3632                 1.5176                 9.3152
 IR Inten    --     1.2601                 2.5045                 5.2982

                    16                     17                     18
                     A                      A                      A
 Frequencies --  1712.2703              3076.7892              3159.1248
 Red. masses --     4.8769                 1.0831                 1.0602
 Frc consts  --     8.4244                 6.0411                 6.2339
 IR Inten    --     6.9349                 3.7928                 3.2194

                    19                     20                     21
                     A                      A                      A
 Frequencies --  3177.0065              3252.3650              3273.4707
 Red. masses --     1.0932                 1.1150                 1.1024
 Frc consts  --     6.5008                 6.9493                 6.9596
 IR Inten    --     2.9421                 4.6760                 2.4609

 - Thermochemistry -
 -------------------
 Temperature   298.150 Kelvin.  Pressure   1.00000 Atm.
 Atom     1 has atomic number  6 and mass  12.00000

 Molecular mass:    53.03913 amu.
 Principal axes and moments of inertia in atomic units:
                           1         2         3
     Eigenvalues --    36.70306 389.34354 426.04661
           X            0.99996   0.00894   0.00000
           Y           -0.00894   0.99996   0.00000
           Z            0.00000   0.00000   1.00000
 This molecule is an asymmetric top.
 Rotational symmetry number  1.
 Rotational temperatures (Kelvin)      2.35985     0.22246     0.20330
 Rotational constants (GHZ):          49.17140     4.63534     4.23602
 Zero-point vibrational energy     188642.5 (Joules/Mol)
                                   45.08663 (Kcal/Mol)
 Warning -- explicit consideration of   4 degrees of freedom as
           vibrations may cause significant error
 Vibrational temperatures:    245.09   435.18   741.12   845.71  1104.62
          (Kelvin)           1168.49  1293.85  1375.17  1405.76  1502.21
                             1705.23  1800.07  1897.15  2085.29  2376.12
                             2463.57  4426.81  4545.27  4571.00  4679.42
                             4709.79

 Zero-point correction=                           0.071850 (Hartree/Particle)
 Thermal correction to Energy=                    0.076473
 Thermal correction to Enthalpy=                  0.077417
 Thermal correction to Gibbs Free Energy=         0.044894
 Sum of electronic and zero-point Energies=           -155.205089
 Sum of electronic and thermal Energies=              -155.200466
 Sum of electronic and thermal Enthalpies=            -155.199522
 Sum of electronic and thermal Free Energies=         -155.232045

                     E (Thermal)             CV                S
                      KCal/Mol        Cal/Mol-Kelvin    Cal/Mol-Kelvin
 Total                   47.988             15.480             68.451
 Electronic               0.000              0.000              1.377
 Translational            0.889              2.981             37.828
 Rotational               0.889              2.981             23.325
 Vibrational             46.210              9.519              5.921
 Vibration     1          0.625              1.879              2.432
 Vibration     2          0.694              1.669              1.403
 Vibration     3          0.870              1.217              0.621
 Vibration     4          0.945              1.058              0.471

 Optimization completed.
    -- Stationary point found.
 Normal termination of Gaussian 09 at Tue Aug  1 18:28:59 2017.
