 Gaussian 09, Revision B.01,
 Gaussian 09:  EM64L-G09RevB.01 12-Aug-2010

 --------------------------------------------------------------
 # m062x/6-311+g(2df,2p) opt=(verytight,gdiis) freq IOP(2/16=3)
 --------------------------------------------------------------

 ----------------------------------
 InChI=1S/C3H4O2/c1-3(5)2-4/h2H,1H3
 ----------------------------------
 Symbolic Z-matrix:
 Charge =  0 Multiplicity = 1

 SCF Done:  E(RM062X) =  -267.107545636     A.U. after   12 cycles
 SCF Done:  E(RM062X) =  -267.122004865     A.U. after   11 cycles
 SCF Done:  E(RM062X) =  -267.123228688     A.U. after   12 cycles
 SCF Done:  E(RM062X) =  -267.123301584     A.U. after   12 cycles
 SCF Done:  E(RM062X) =  -267.123284660     A.U. after   12 cycles
 SCF Done:  E(RM062X) =  -267.123325737     A.U. after   15 cycles
 SCF Done:  E(RM062X) =  -267.123325870     A.U. after    6 cycles
 SCF Done:  E(RM062X) =  -267.123325878     A.U. after   13 cycles
 SCF Done:  E(RM062X) =  -267.123325878     A.U. after   13 cycles
 SCF Done:  E(RM062X) =  -267.123325879     A.U. after    5 cycles
 SCF Done:  E(RM062X) =  -267.123325879     A.U. after    2 cycles
 SCF Done:  E(RM062X) =  -267.123325879     A.U. after    2 cycles
 Optimization completed.
    -- Stationary point found.
 Normal termination of Gaussian 09 at Thu Feb 16 22:15:05 2017.

 ----------------------------------------------------------------------
 #N Geom=AllCheck Guess=TCheck SCRF=Check Test GenChk RM062X/6-311+G(2d
 f,2p) Freq
 ----------------------------------------------------------------------

 InChI=1S/C3H4O2/c1-3(5)2-4/h2H,1H3
 ----------------------------------
 Redundant internal coordinates taken from checkpoint file:
 /gss_gpfs_scratch/westgroup/rwest-autotst-1/Gau-11134.chk
 Charge =  0 Multiplicity = 1

                         Standard orientation:
 ---------------------------------------------------------------------
 Center     Atomic      Atomic             Coordinates (Angstroms)
 Number     Number       Type             X           Y           Z
 ---------------------------------------------------------------------
      1          6           0        1.685013   -0.631018    0.000006
      2          6           0        0.429864    0.194386   -0.000003
      3          6           0       -0.894814   -0.608133   -0.000011
      4          1           0        1.698967   -1.281671    0.877029
      5          1           0        1.698981   -1.281666   -0.877020
      6          1           0        2.558489    0.012859    0.000015
      7          8           0        0.398341    1.389618   -0.000004
      8          8           0       -1.958763   -0.073357    0.000011
      9          1           0       -0.793437   -1.711022   -0.000035
 ---------------------------------------------------------------------

 SCF Done:  E(RM062X) =  -267.123325879     A.U. after    1 cycles

 The electronic state is 1-A.
 Alpha  occ. eigenvalues --  -19.66013 -19.64830 -10.65296 -10.65110 -10.56417
 Alpha  occ. eigenvalues --   -1.21985  -1.19245  -0.88277  -0.76564  -0.64299
 Alpha  occ. eigenvalues --   -0.59422  -0.56641  -0.55031  -0.52673  -0.49454
 Alpha  occ. eigenvalues --   -0.49267  -0.44957  -0.40318  -0.33011
 Alpha virt. eigenvalues --   -0.06151   0.00158   0.02894   0.03179   0.04022
 Alpha virt. eigenvalues --    0.06283   0.06618   0.06716   0.08244   0.08930
 Alpha virt. eigenvalues --    0.10259   0.12194   0.12303   0.13755   0.18020

 Mulliken atomic charges:
              1
     1  C   -0.460369
     2  C    0.334151
     3  C    0.129982
     4  H    0.149776
     5  H    0.149776
     6  H    0.159822
     7  O   -0.327498
     8  O   -0.265906
     9  H    0.130266
 Sum of Mulliken atomic charges =   0.00000

 Dipole moment (field-independent basis, Debye):
    X=              2.6742    Y=             -3.5573    Z=              0.0000  Tot=              4.4503
 Quadrupole moment (field-independent basis, Debye-Ang):
   XX=            -32.2566   YY=            -31.0763   ZZ=            -27.6913
   XY=             -0.5186   XZ=              0.0001   YZ=              0.0000

  Exact polarizability:  47.655  -2.535  45.108   0.000   0.000  28.514
 Approx polarizability:  51.479  -4.409  56.075   0.000   0.000  35.924

                     1                      2                      3
                     A                      A                      A
 Frequencies --    86.5020               178.8427               266.1754
 Red. masses --     2.7717                 1.0720                 5.0157
 Frc consts  --     0.0122                 0.0202                 0.2094
 IR Inten    --     8.2836                 0.3336                 1.7625

                     4                      5                      6
                     A                      A                      A
 Frequencies --   407.5408               469.7289               650.0251
 Red. masses --     4.2982                 2.3804                 4.4885
 Frc consts  --     0.4206                 0.3095                 1.1174
 IR Inten    --     3.2456                 0.9614                22.1628

                     7                      8                      9
                     A                      A                      A
 Frequencies --   825.4331               889.4084               984.5947
 Red. masses --     3.1627                 1.3918                 2.2876
 Frc consts  --     1.2696                 0.6487                 1.3066
 IR Inten    --    29.3796                 0.2271                24.8950

                    10                     11                     12
                     A                      A                      A
 Frequencies --  1084.0723              1195.9880              1396.7029
 Red. masses --     2.0178                 2.5794                 1.2682
 Frc consts  --     1.3972                 2.1738                 1.4576
 IR Inten    --     2.9748                53.9920                27.8526

                    13                     14                     15
                     A                      A                      A
 Frequencies --  1410.9421              1468.7856              1481.1555
 Red. masses --     1.3104                 1.0517                 1.0472
 Frc consts  --     1.5370                 1.3368                 1.3536
 IR Inten    --    15.2424                16.2569                10.1381

                    16                     17                     18
                     A                      A                      A
 Frequencies --  1879.9679              1900.4911              2966.6669
 Red. masses --    12.1914                10.9320                 1.0862
 Frc consts  --    25.3866                23.2638                 5.6324
 IR Inten    --   184.6771                50.7522                77.9936

                    19                     20                     21
                     A                      A                      A
 Frequencies --  3060.0939              3120.6006              3188.3118
 Red. masses --     1.0378                 1.0983                 1.1028
 Frc consts  --     5.7259                 6.3014                 6.6047
 IR Inten    --     1.0639                 1.8492                 1.6855

 - Thermochemistry -
 -------------------
 Temperature   298.150 Kelvin.  Pressure   1.00000 Atm.
 Atom     1 has atomic number  6 and mass  12.00000

 Molecular mass:    72.02113 amu.
 Principal axes and moments of inertia in atomic units:
                           1         2         3
     Eigenvalues --   171.65794 443.44895 604.03386
           X            0.99909  -0.04258   0.00000
           Y            0.04258   0.99909   0.00000
           Z            0.00000   0.00000   1.00000
 This molecule is an asymmetric top.
 Rotational symmetry number  1.
 Rotational temperatures (Kelvin)      0.50457     0.19532     0.14339
 Rotational constants (GHZ):          10.51359     4.06978     2.98781
 Zero-point vibrational energy     172932.3 (Joules/Mol)
                                   41.33182 (Kcal/Mol)
 Warning -- explicit consideration of   5 degrees of freedom as
           vibrations may cause significant error
 Vibrational temperatures:    124.46   257.31   382.97   586.36   675.83
          (Kelvin)            935.24  1187.61  1279.66  1416.61  1559.74
                             1720.76  2009.54  2030.03  2113.25  2131.05
                             2704.85  2734.38  4268.37  4402.79  4489.84
                             4587.26

 Zero-point correction=                           0.065866 (Hartree/Particle)
 Thermal correction to Energy=                    0.071440
 Thermal correction to Enthalpy=                  0.072385
 Thermal correction to Gibbs Free Energy=         0.037023
 Sum of electronic and zero-point Energies=           -267.057459
 Sum of electronic and thermal Energies=              -267.051886
 Sum of electronic and thermal Enthalpies=            -267.050941
 Sum of electronic and thermal Free Energies=         -267.086303

                     E (Thermal)             CV                S
                      KCal/Mol        Cal/Mol-Kelvin    Cal/Mol-Kelvin
 Total                   44.829             17.652             74.425
 Electronic               0.000              0.000              0.000
 Translational            0.889              2.981             38.740
 Rotational               0.889              2.981             25.334
 Vibrational             43.052             11.690             10.351
 Vibration     1          0.601              1.959              3.738
 Vibration     2          0.629              1.868              2.340
 Vibration     3          0.672              1.735              1.621
 Vibration     4          0.772              1.454              0.935
 Vibration     5          0.827              1.317              0.738

 Normal termination of Gaussian 09 at Thu Feb 16 22:18:34 2017.
