 Gaussian 09, Revision B.01,
 Gaussian 09:  EM64L-G09RevB.01 12-Aug-2010

 --------------------------------------------------------------
 # m062x/6-311+g(2df,2p) opt=(verytight,gdiis) freq IOP(2/16=3)
 --------------------------------------------------------------

 ----------------------------------------------
 InChI=1S/C5H6O/c1-2-4-6-5-3-1/h1-2H,4-5H2/u2,3
 ----------------------------------------------
 Symbolic Z-matrix:
 Charge =  0 Multiplicity = 3

 SCF Done:  E(UM062X) =  -269.153915637     A.U. after   17 cycles
 SCF Done:  E(UM062X) =  -269.165759982     A.U. after   15 cycles
 SCF Done:  E(UM062X) =  -269.179228995     A.U. after   15 cycles
 SCF Done:  E(UM062X) =  -269.181746656     A.U. after   15 cycles
 SCF Done:  E(UM062X) =  -269.181913833     A.U. after   13 cycles
 SCF Done:  E(UM062X) =  -269.181992808     A.U. after   13 cycles
 SCF Done:  E(UM062X) =  -269.182006687     A.U. after   12 cycles
 SCF Done:  E(UM062X) =  -269.182011055     A.U. after   11 cycles
 SCF Done:  E(UM062X) =  -269.182012109     A.U. after   11 cycles
 SCF Done:  E(UM062X) =  -269.182012697     A.U. after    9 cycles
 SCF Done:  E(UM062X) =  -269.182013056     A.U. after   10 cycles
 SCF Done:  E(UM062X) =  -269.182013111     A.U. after    8 cycles
 SCF Done:  E(UM062X) =  -269.182013137     A.U. after    5 cycles
 SCF Done:  E(UM062X) =  -269.182013131     A.U. after    3 cycles
 SCF Done:  E(UM062X) =  -269.182013130     A.U. after    3 cycles
 SCF Done:  E(UM062X) =  -269.182013129     A.U. after    3 cycles
 SCF Done:  E(UM062X) =  -269.182013130     A.U. after    2 cycles
 Optimization completed.
    -- Stationary point found.
 Normal termination of Gaussian 09 at Wed Aug 23 19:03:51 2017.

 ----------------------------------------------------------------------
 #N Geom=AllCheck Guess=TCheck SCRF=Check Test GenChk UM062X/6-311+G(2d
 f,2p) Freq
 ----------------------------------------------------------------------

 InChI=1S/C5H6O/c1-2-4-6-5-3-1/h1-2H,4-5H2/u2,3
 ----------------------------------------------
 Redundant internal coordinates taken from checkpoint file:
 /gss_gpfs_scratch/harms.n/comparerTST/Gau-28055.chk
 Charge =  0 Multiplicity = 3

                         Standard orientation:
 ---------------------------------------------------------------------
 Center     Atomic      Atomic             Coordinates (Angstroms)
 Number     Number       Type             X           Y           Z
 ---------------------------------------------------------------------
      1          6           0        0.077089    1.304884    0.156352
      2          6           0       -1.280704   -0.633348    0.153858
      3          6           0        1.325277    0.485168    0.010839
      4          6           0        1.215485   -0.885394   -0.069248
      5          8           0       -1.067021    0.664615   -0.375785
      6          6           0       -0.040642   -1.430729    0.009170
      7          1           0       -0.094991    1.543836    1.217755
      8          1           0        0.166221    2.249440   -0.379063
      9          1           0       -1.576684   -0.567942    1.211290
     10          1           0       -2.114777   -1.060267   -0.401794
     11          1           0        2.284380    0.982701   -0.016396
     12          1           0        2.092981   -1.508163   -0.191341
 ---------------------------------------------------------------------

 SCF Done:  E(UM062X) =  -269.182013130     A.U. after    1 cycles

 The electronic state is 3-A.
 Alpha  occ. eigenvalues --  -19.63567 -10.59936 -10.59312 -10.57081 -10.55161
 Alpha  occ. eigenvalues --  -10.54827  -1.17448  -0.92408  -0.87373  -0.75157
 Alpha  occ. eigenvalues --   -0.72378  -0.61195  -0.58697  -0.56361  -0.52822
 Alpha  occ. eigenvalues --   -0.49904  -0.48918  -0.46342  -0.42278  -0.37551
 Alpha  occ. eigenvalues --   -0.35479  -0.31305  -0.24163
 Alpha virt. eigenvalues --    0.01494   0.03048   0.03384   0.04366   0.04833
 Alpha virt. eigenvalues --    0.05368   0.06156   0.07475   0.08473   0.09030
 Alpha virt. eigenvalues --    0.10078   0.10403   0.12934   0.13415   0.14695

  Beta  occ. eigenvalues --  -19.63446 -10.59922 -10.59350 -10.55634 -10.54996
  Beta  occ. eigenvalues --  -10.54715  -1.16961  -0.90274  -0.85772  -0.74536
  Beta  occ. eigenvalues --   -0.69122  -0.60430  -0.57235  -0.55299  -0.50731
  Beta  occ. eigenvalues --   -0.48719  -0.47844  -0.44847  -0.40245  -0.34519
  Beta  occ. eigenvalues --   -0.33721
  Beta virt. eigenvalues --   -0.05801  -0.03339   0.01384   0.03195   0.03604
  Beta virt. eigenvalues --    0.04476   0.04904   0.06442   0.07074   0.07452
  Beta virt. eigenvalues --    0.08303   0.09347   0.10161   0.10492   0.12389

 Mulliken atomic charges:
              1
     1  C   -0.305383
     2  C   -0.309932
     3  C   -0.053197
     4  C   -0.256898
     5  O   -0.183886
     6  C    0.186120
     7  H    0.154582
     8  H    0.149857
     9  H    0.152601
    10  H    0.155345
    11  H    0.160733
    12  H    0.150058
 Sum of Mulliken atomic charges =   0.00000

 Dipole moment (field-independent basis, Debye):
    X=              0.6953    Y=              0.2767    Z=              0.9789  Tot=              1.2322
 Quadrupole moment (field-independent basis, Debye-Ang):
   XX=            -33.9185   YY=            -35.2038   ZZ=            -37.9727
   XY=              2.4452   XZ=             -1.4745   YZ=              0.8656

  Exact polarizability:  65.280   6.639  68.887  -1.567   0.990  45.508
 Approx polarizability:  74.037   9.059  81.950  -0.864   0.422  57.839

                     1                      2                      3
                     A                      A                      A
 Frequencies --   152.2702               277.8424               438.9222
 Red. masses --     2.1190                 2.4344                 2.5631
 Frc consts  --     0.0289                 0.1107                 0.2909
 IR Inten    --     2.5309                 6.2965                 7.4225

                     4                      5                      6
                     A                      A                      A
 Frequencies --   523.9651               555.9569               635.5748
 Red. masses --     5.6082                 3.9041                 1.3936
 Frc consts  --     0.9072                 0.7110                 0.3317
 IR Inten    --    11.5778                 4.3189                35.6768

                     7                      8                      9
                     A                      A                      A
 Frequencies --   842.4637               902.3958               903.7861
 Red. masses --     4.1855                 2.3307                 1.3983
 Frc consts  --     1.7503                 1.1182                 0.6730
 IR Inten    --     9.1368                 2.6447                 6.5044

                    10                     11                     12
                     A                      A                      A
 Frequencies --   929.1233               981.2376               992.4345
 Red. masses --     4.7607                 1.7249                 2.8248
 Frc consts  --     2.4214                 0.9785                 1.6393
 IR Inten    --    11.2492                 1.4934                30.2765

                    13                     14                     15
                     A                      A                      A
 Frequencies --  1068.9216              1109.9240              1178.0206
 Red. masses --     2.1093                 1.4768                 3.4136
 Frc consts  --     1.4200                 1.0719                 2.7910
 IR Inten    --     6.8226                16.5739                56.0172

                    16                     17                     18
                     A                      A                      A
 Frequencies --  1233.3223              1294.9497              1307.7446
 Red. masses --     1.1107                 1.9077                 1.1823
 Frc consts  --     0.9954                 1.8848                 1.1914
 IR Inten    --     2.6990                 0.4387                 4.2730

                    19                     20                     21
                     A                      A                      A
 Frequencies --  1335.3216              1386.9744              1412.9548
 Red. masses --     1.9893                 1.6164                 1.5255
 Frc consts  --     2.0899                 1.8320                 1.7944
 IR Inten    --     2.5389                10.1066                 7.7649

                    22                     23                     24
                     A                      A                      A
 Frequencies --  1480.1924              1485.5335              1496.4901
 Red. masses --     1.6738                 1.4502                 1.1749
 Frc consts  --     2.1607                 1.8856                 1.5502
 IR Inten    --     1.5302                 0.5933                 6.6480

                    25                     26                     27
                     A                      A                      A
 Frequencies --  2978.0970              2994.3005              3104.1625
 Red. masses --     1.0711                 1.0697                 1.0892
 Frc consts  --     5.5971                 5.6508                 6.1836
 IR Inten    --    41.0150                40.9242                16.7393

                    28                     29                     30
                     A                      A                      A
 Frequencies --  3106.8006              3158.6533              3195.7217
 Red. masses --     1.0907                 1.0882                 1.0921
 Frc consts  --     6.2030                 6.3970                 6.5713
 IR Inten    --     6.6303                 1.2699                 4.4193

 - Thermochemistry -
 -------------------
 Temperature   298.150 Kelvin.  Pressure   1.00000 Atm.
 Atom     1 has atomic number  6 and mass  12.00000

 Molecular mass:    82.04186 amu.
 Principal axes and moments of inertia in atomic units:
                           1         2         3
     Eigenvalues --   310.61023 357.67841 624.40403
           X            0.98148   0.19069  -0.01849
           Y           -0.19046   0.98160   0.01346
           Z            0.02072  -0.00969   0.99974
 This molecule is an asymmetric top.
 Rotational symmetry number  1.
 Rotational temperatures (Kelvin)      0.27885     0.24216     0.13871
 Rotational constants (GHZ):           5.81031     5.04571     2.89034
 Zero-point vibrational energy     253991.5 (Joules/Mol)
                                   60.70542 (Kcal/Mol)
 Warning -- explicit consideration of   5 degrees of freedom as
           vibrations may cause significant error
 Vibrational temperatures:    219.08   399.75   631.51   753.87   799.90
          (Kelvin)            914.45  1212.12  1298.34  1300.34  1336.80
                             1411.78  1427.89  1537.94  1596.93  1694.91
                             1774.47  1863.14  1881.55  1921.23  1995.54
                             2032.92  2129.66  2137.35  2153.11  4284.81
                             4308.13  4466.19  4469.99  4544.59  4597.93

 Zero-point correction=                           0.096740 (Hartree/Particle)
 Thermal correction to Energy=                    0.101916
 Thermal correction to Enthalpy=                  0.102860
 Thermal correction to Gibbs Free Energy=         0.067351
 Sum of electronic and zero-point Energies=           -269.085273
 Sum of electronic and thermal Energies=              -269.080098
 Sum of electronic and thermal Enthalpies=            -269.079153
 Sum of electronic and thermal Free Energies=         -269.114663

                     E (Thermal)             CV                S
                      KCal/Mol        Cal/Mol-Kelvin    Cal/Mol-Kelvin
 Total                   63.953             18.920             74.735
 Electronic               0.000              0.000              2.183
 Translational            0.889              2.981             39.128
 Rotational               0.889              2.981             25.742
 Vibrational             62.176             12.958              7.682
 Vibration     1          0.619              1.900              2.644
 Vibration     2          0.679              1.714              1.547
 Vibration     3          0.799              1.385              0.830
 Vibration     4          0.879              1.197              0.601
 Vibration     5          0.911              1.127              0.532

 Normal termination of Gaussian 09 at Wed Aug 23 19:20:56 2017.
