 Gaussian 09, Revision B.01,
 Gaussian 09:  EM64L-G09RevB.01 12-Aug-2010

 --------------------------------------------------------------
 # m062x/6-311+g(2df,2p) opt=(verytight,gdiis) freq IOP(2/16=3)
 --------------------------------------------------------------

 -----------------------------------------------------------
 InChI=1S/C8H17O/c1-5-8(6-2)9-7(3)4/h7-8H,3,5-6H2,1-2,4H3/u3
 -----------------------------------------------------------
 Symbolic Z-matrix:
 Charge =  0 Multiplicity = 2

 SCF Done:  E(UM062X) =  -390.170024011     A.U. after   14 cycles
 SCF Done:  E(UM062X) =  -390.181139012     A.U. after   13 cycles
 SCF Done:  E(UM062X) =  -390.185368995     A.U. after   13 cycles
 SCF Done:  E(UM062X) =  -390.185530295     A.U. after   13 cycles
 SCF Done:  E(UM062X) =  -390.185870643     A.U. after   14 cycles
 SCF Done:  E(UM062X) =  -390.186097939     A.U. after   13 cycles
 SCF Done:  E(UM062X) =  -390.186129661     A.U. after   11 cycles
 SCF Done:  E(UM062X) =  -390.186148065     A.U. after   10 cycles
 SCF Done:  E(UM062X) =  -390.186170777     A.U. after   11 cycles
 SCF Done:  E(UM062X) =  -390.186182191     A.U. after   11 cycles
 SCF Done:  E(UM062X) =  -390.186187422     A.U. after    9 cycles
 SCF Done:  E(UM062X) =  -390.186187425     A.U. after    7 cycles
 SCF Done:  E(UM062X) =  -390.186187427     A.U. after    6 cycles
 SCF Done:  E(UM062X) =  -390.186187429     A.U. after    4 cycles
 SCF Done:  E(UM062X) =  -390.186187428     A.U. after    3 cycles
 SCF Done:  E(UM062X) =  -390.186187428     A.U. after    4 cycles
 SCF Done:  E(UM062X) =  -390.186187428     A.U. after    4 cycles
 SCF Done:  E(UM062X) =  -390.186187428     A.U. after    3 cycles
 SCF Done:  E(UM062X) =  -390.186187428     A.U. after    2 cycles
 Optimization completed.
    -- Stationary point found.
 Normal termination of Gaussian 09 at Sat Aug 19 10:37:22 2017.

 ----------------------------------------------------------------------
 #N Geom=AllCheck Guess=TCheck SCRF=Check Test GenChk UM062X/6-311+G(2d
 f,2p) Freq
 ----------------------------------------------------------------------

 InChI=1S/C8H17O/c1-5-8(6-2)9-7(3)4/h7-8H,3,5-6H2,1-2,4H3/u3
 -----------------------------------------------------------
 Redundant internal coordinates taken from checkpoint file:
 /gss_gpfs_scratch/harms.n/bioTST/Gau-894.chk
 Charge =  0 Multiplicity = 2

                         Standard orientation:
 ---------------------------------------------------------------------
 Center     Atomic      Atomic             Coordinates (Angstroms)
 Number     Number       Type             X           Y           Z
 ---------------------------------------------------------------------
      1          6           0       -0.888831    0.202612    0.164519
      2          6           0       -1.967012   -0.766614   -0.300969
      3          6           0       -1.315629    1.650326   -0.054569
      4          6           0        1.497130   -0.133235    0.212252
      5          6           0        2.649950   -0.006062   -0.776076
      6          6           0       -1.618024   -2.227714   -0.055890
      7          6           0       -0.270782    2.674260    0.369945
      8          6           0        1.572069   -1.405045    0.987334
      9          8           0        0.306359   -0.059431   -0.560119
     10          1           0       -0.702561    0.032909    1.234082
     11          1           0        1.532382    0.712042    0.908381
     12          1           0       -2.135598   -0.596711   -1.367564
     13          1           0       -2.897489   -0.511845    0.211627
     14          1           0       -1.539484    1.774652   -1.117315
     15          1           0       -2.248278    1.820954    0.488643
     16          1           0        2.602720   -0.822899   -1.495949
     17          1           0        2.576218    0.938348   -1.315022
     18          1           0        3.606944   -0.049963   -0.258066
     19          1           0       -0.736435   -2.510041   -0.628828
     20          1           0       -1.404490   -2.407085    0.999600
     21          1           0       -2.438338   -2.881187   -0.350859
     22          1           0       -0.626774    3.689532    0.198889
     23          1           0        0.649926    2.544258   -0.199012
     24          1           0       -0.032622    2.580044    1.431168
     25          1           0        1.969459   -1.426687    1.990845
     26          1           0        1.420332   -2.342036    0.471059
 ---------------------------------------------------------------------

 SCF Done:  E(UM062X) =  -390.186187428     A.U. after    1 cycles

 The electronic state is 2-A.
 Alpha  occ. eigenvalues --  -19.61532 -10.58938 -10.57779 -10.54321 -10.52506
 Alpha  occ. eigenvalues --  -10.52371 -10.52355 -10.52024 -10.51470  -1.15384
 Alpha  occ. eigenvalues --   -0.91075  -0.86306  -0.84981  -0.77751  -0.76439
 Alpha  occ. eigenvalues --   -0.68395  -0.67453  -0.65304  -0.58685  -0.54761
 Alpha  occ. eigenvalues --   -0.51945  -0.50676  -0.50183  -0.49654  -0.47337
 Alpha  occ. eigenvalues --   -0.46198  -0.45461  -0.44769  -0.43500  -0.41546
 Alpha  occ. eigenvalues --   -0.40976  -0.39584  -0.39251  -0.38391  -0.37148
 Alpha  occ. eigenvalues --   -0.32330  -0.27149
 Alpha virt. eigenvalues --    0.01618   0.02436   0.02727   0.03132   0.04328
 Alpha virt. eigenvalues --    0.04552   0.05036   0.05648   0.05861   0.07134
 Alpha virt. eigenvalues --    0.07504   0.08363   0.08680   0.08870   0.09321

  Beta  occ. eigenvalues --  -19.61478 -10.59003 -10.57774 -10.53644 -10.52508
  Beta  occ. eigenvalues --  -10.52372 -10.52282 -10.52024 -10.51466  -1.15194
  Beta  occ. eigenvalues --   -0.90783  -0.85514  -0.84915  -0.76386  -0.75238
  Beta  occ. eigenvalues --   -0.68389  -0.66791  -0.64816  -0.58345  -0.54259
  Beta  occ. eigenvalues --   -0.51554  -0.50528  -0.50064  -0.49185  -0.46627
  Beta  occ. eigenvalues --   -0.46134  -0.44962  -0.44542  -0.43291  -0.41434
  Beta  occ. eigenvalues --   -0.40899  -0.39518  -0.39114  -0.38153  -0.36974
  Beta  occ. eigenvalues --   -0.31979
  Beta virt. eigenvalues --   -0.02732   0.01219   0.02333   0.02552   0.03435
  Beta virt. eigenvalues --    0.04329   0.04468   0.05052   0.05687   0.05797
  Beta virt. eigenvalues --    0.07041   0.07574   0.08042   0.08642   0.08897

 Mulliken atomic charges:
              1
     1  C   -0.144204
     2  C   -0.168602
     3  C   -0.345206
     4  C   -0.205710
     5  C   -0.477411
     6  C   -0.588515
     7  C   -0.566617
     8  C   -0.356355
     9  O   -0.034954
    10  H    0.197170
    11  H    0.195120
    12  H    0.184234
    13  H    0.160106
    14  H    0.184153
    15  H    0.165321
    16  H    0.167820
    17  H    0.145183
    18  H    0.150603
    19  H    0.169254
    20  H    0.154116
    21  H    0.147884
    22  H    0.152900
    23  H    0.168944
    24  H    0.159372
    25  H    0.190190
    26  H    0.195204
 Sum of Mulliken atomic charges =   0.00000

 Dipole moment (field-independent basis, Debye):
    X=              0.1247    Y=              0.2656    Z=              1.0146  Tot=              1.0561
 Quadrupole moment (field-independent basis, Debye-Ang):
   XX=            -57.5648   YY=            -59.7318   ZZ=            -60.1722
   XY=             -0.4756   XZ=              0.6596   YZ=              0.1757

  Exact polarizability: 107.781   0.168 107.109   0.776  -1.548  88.346
 Approx polarizability: 117.200  -0.633 114.866   0.842  -0.676 115.409

                     1                      2                      3
                     A                      A                      A
 Frequencies --    64.4518               100.5660               106.4027
 Red. masses --     2.7189                 2.4904                 2.6513
 Frc consts  --     0.0067                 0.0148                 0.0177
 IR Inten    --     0.0280                 0.3103                 1.0147

                     4                      5                      6
                     A                      A                      A
 Frequencies --   139.1025               189.6006               202.3526
 Red. masses --     2.0309                 2.4675                 2.0421
 Frc consts  --     0.0232                 0.0523                 0.0493
 IR Inten    --     1.3210                 0.6082                 0.3810

                     7                      8                      9
                     A                      A                      A
 Frequencies --   236.4814               244.3376               280.8226
 Red. masses --     1.1632                 1.1338                 1.6035
 Frc consts  --     0.0383                 0.0399                 0.0745
 IR Inten    --     0.4282                 2.8594                 2.1360

                    10                     11                     12
                     A                      A                      A
 Frequencies --   295.2625               304.3489               331.4094
 Red. masses --     1.2614                 1.3845                 2.0783
 Frc consts  --     0.0648                 0.0756                 0.1345
 IR Inten    --     1.1737                 0.3579                 1.4547

                    13                     14                     15
                     A                      A                      A
 Frequencies --   395.6136               436.1163               469.7092
 Red. masses --     2.4815                 2.6497                 2.3425
 Frc consts  --     0.2288                 0.2969                 0.3045
 IR Inten    --     1.1770                 2.2447                 1.6955

                    16                     17                     18
                     A                      A                      A
 Frequencies --   496.0262               526.7506               585.0113
 Red. masses --     2.1304                 2.5015                 1.7919
 Frc consts  --     0.3088                 0.4089                 0.3613
 IR Inten    --     3.6584                 6.6959                39.7749

                    19                     20                     21
                     A                      A                      A
 Frequencies --   770.3767               776.0556               872.0901
 Red. masses --     1.1959                 1.4699                 2.1560
 Frc consts  --     0.4182                 0.5216                 0.9661
 IR Inten    --     0.0482                 1.2413                 3.1894

                    22                     23                     24
                     A                      A                      A
 Frequencies --   885.6667               921.2086               948.0737
 Red. masses --     1.5461                 1.2310                 1.7240
 Frc consts  --     0.7146                 0.6155                 0.9130
 IR Inten    --     4.4225                 1.8028                 6.8162

                    25                     26                     27
                     A                      A                      A
 Frequencies --   950.4670              1026.0858              1027.6263
 Red. masses --     1.8343                 2.0066                 1.4851
 Frc consts  --     0.9763                 1.2447                 0.9240
 IR Inten    --     5.3377                15.1079                 0.9095

                    28                     29                     30
                     A                      A                      A
 Frequencies --  1048.7521              1091.0448              1121.7611
 Red. masses --     1.6996                 2.9508                 3.1766
 Frc consts  --     1.1014                 2.0696                 2.3551
 IR Inten    --     1.4112                 1.9841                79.9046

                    31                     32                     33
                     A                      A                      A
 Frequencies --  1139.4673              1163.3384              1171.0644
 Red. masses --     2.0034                 2.3039                 2.2099
 Frc consts  --     1.5326                 1.8371                 1.7856
 IR Inten    --    10.1499                55.6443                37.8646

                    34                     35                     36
                     A                      A                      A
 Frequencies --  1190.0663              1214.4101              1282.6070
 Red. masses --     2.6988                 2.4843                 1.2560
 Frc consts  --     2.2520                 2.1587                 1.2174
 IR Inten    --    35.4562                30.4841                 1.0630

                    37                     38                     39
                     A                      A                      A
 Frequencies --  1307.7501              1322.7329              1354.5231
 Red. masses --     1.1796                 1.2120                 1.2661
 Frc consts  --     1.1886                 1.2494                 1.3687
 IR Inten    --     0.3752                 0.3039                 9.1563

                    40                     41                     42
                     A                      A                      A
 Frequencies --  1372.5164              1383.7082              1401.6069
 Red. masses --     1.3382                 1.2581                 1.2804
 Frc consts  --     1.4853                 1.4193                 1.4820
 IR Inten    --     6.2748                13.3847                10.6219

                    43                     44                     45
                     A                      A                      A
 Frequencies --  1405.3642              1407.3442              1414.2483
 Red. masses --     1.4493                 1.4145                 1.3278
 Frc consts  --     1.6865                 1.6507                 1.5647
 IR Inten    --     5.7918                 1.8417                 1.5225

                    46                     47                     48
                     A                      A                      A
 Frequencies --  1432.1776              1458.6857              1477.6258
 Red. masses --     1.2628                 1.2040                 1.0819
 Frc consts  --     1.5260                 1.5094                 1.3918
 IR Inten    --     8.3118                 7.0447                 0.0470

                    49                     50                     51
                     A                      A                      A
 Frequencies --  1486.3805              1489.6973              1500.3089
 Red. masses --     1.0676                 1.0840                 1.0518
 Frc consts  --     1.3897                 1.4173                 1.3949
 IR Inten    --     2.9263                 2.0677                 2.8737

                    52                     53                     54
                     A                      A                      A
 Frequencies --  1504.6547              1505.5075              1518.2906
 Red. masses --     1.0497                 1.0447                 1.0546
 Frc consts  --     1.4002                 1.3951                 1.4324
 IR Inten    --     7.3135                10.8902                 9.8084

                    55                     56                     57
                     A                      A                      A
 Frequencies --  1519.2781              3010.7136              3036.2305
 Red. masses --     1.0527                 1.0824                 1.0701
 Frc consts  --     1.4316                 5.7807                 5.8120
 IR Inten    --    12.4922                10.1210                 5.5037

                    58                     59                     60
                     A                      A                      A
 Frequencies --  3038.3413              3043.1345              3048.0793
 Red. masses --     1.0617                 1.0482                 1.0594
 Frc consts  --     5.7744                 5.7194                 5.7992
 IR Inten    --     3.5790                37.6456                43.9967

                    61                     62                     63
                     A                      A                      A
 Frequencies --  3049.4574              3056.4481              3077.3239
 Red. masses --     1.0348                 1.0386                 1.1022
 Frc consts  --     5.6694                 5.7166                 6.1498
 IR Inten    --    11.2744                22.9583                 1.4966

                    64                     65                     66
                     A                      A                      A
 Frequencies --  3089.2227              3113.2693              3120.6588
 Red. masses --     1.1019                 1.1012                 1.1020
 Frc consts  --     6.1956                 6.2885                 6.3228
 IR Inten    --    19.7107                30.1820                25.4978

                    67                     68                     69
                     A                      A                      A
 Frequencies --  3120.8959              3129.3446              3133.9213
 Red. masses --     1.1019                 1.1033                 1.1029
 Frc consts  --     6.3235                 6.3660                 6.3824
 IR Inten    --    31.3829                15.8311                14.0533

                    70                     71                     72
                     A                      A                      A
 Frequencies --  3148.1070              3165.3254              3273.5633
 Red. masses --     1.0996                 1.0513                 1.1194
 Frc consts  --     6.4207                 6.2059                 7.0676
 IR Inten    --    20.1460                 5.5467                 4.2922

 - Thermochemistry -
 -------------------
 Temperature   298.150 Kelvin.  Pressure   1.00000 Atm.
 Atom     1 has atomic number  6 and mass  12.00000

 Molecular mass:   129.12794 amu.
 Principal axes and moments of inertia in atomic units:
                           1         2         3
     Eigenvalues --  1139.453261293.127172108.67880
           X            0.99837   0.05702  -0.00203
           Y           -0.05702   0.99837   0.00205
           Z            0.00214  -0.00193   1.00000
 This molecule is an asymmetric top.
 Rotational symmetry number  1.
 Warning -- assumption of classical behavior for rotation
           may cause significant error
 Rotational temperatures (Kelvin)      0.07601     0.06698     0.04107
 Rotational constants (GHZ):           1.58387     1.39564     0.85586
 Zero-point vibrational energy     621585.4 (Joules/Mol)
                                  148.56248 (Kcal/Mol)
 Warning -- explicit consideration of  18 degrees of freedom as
           vibrations may cause significant error
 Vibrational temperatures:     92.73   144.69   153.09   200.14   272.79
          (Kelvin)            291.14   340.24   351.55   404.04   424.82
                              437.89   476.82   569.20   627.47   675.81
                              713.67   757.88   841.70  1108.40  1116.57
                             1254.74  1274.28  1325.41  1364.06  1367.51
                             1476.31  1478.52  1508.92  1569.77  1613.96
                             1639.44  1673.78  1684.90  1712.24  1747.26
                             1845.38  1881.56  1903.12  1948.85  1974.74
                             1990.84  2016.60  2022.00  2024.85  2034.79
                             2060.58  2098.72  2125.97  2138.57  2143.34
                             2158.61  2164.86  2166.09  2184.48  2185.90
                             4331.74  4368.45  4371.49  4378.39  4385.50
                             4387.48  4397.54  4427.58  4444.70  4479.29
                             4489.93  4490.27  4502.42  4509.01  4529.42
                             4554.19  4709.92

 Zero-point correction=                           0.236749 (Hartree/Particle)
 Thermal correction to Energy=                    0.248552
 Thermal correction to Enthalpy=                  0.249496
 Thermal correction to Gibbs Free Energy=         0.199513
 Sum of electronic and zero-point Energies=           -389.949438
 Sum of electronic and thermal Energies=              -389.937636
 Sum of electronic and thermal Enthalpies=            -389.936691
 Sum of electronic and thermal Free Energies=         -389.986674

                     E (Thermal)             CV                S
                      KCal/Mol        Cal/Mol-Kelvin    Cal/Mol-Kelvin
 Total                  155.969             43.824            105.197
 Electronic               0.000              0.000              1.377
 Translational            0.889              2.981             40.480
 Rotational               0.889              2.981             29.520
 Vibrational            154.191             37.862             33.820
 Vibration     1          0.597              1.971              4.316
 Vibration     2          0.604              1.949              3.443
 Vibration     3          0.605              1.944              3.334
 Vibration     4          0.615              1.914              2.816
 Vibration     5          0.633              1.854              2.232
 Vibration     6          0.639              1.837              2.112
 Vibration     7          0.655              1.785              1.829
 Vibration     8          0.660              1.772              1.771
 Vibration     9          0.680              1.709              1.529
 Vibration    10          0.689              1.683              1.444
 Vibration    11          0.695              1.665              1.393
 Vibration    12          0.714              1.613              1.253
 Vibration    13          0.762              1.480              0.979
 Vibration    14          0.797              1.391              0.839
 Vibration    15          0.827              1.317              0.738
 Vibration    16          0.852              1.259              0.668
 Vibration    17          0.882              1.191              0.595
 Vibration    18          0.942              1.064              0.476

 Normal termination of Gaussian 09 at Sat Aug 19 12:55:06 2017.
