 Gaussian 09, Revision B.01,
 Gaussian 09:  EM64L-G09RevB.01 12-Aug-2010

 --------------------------------------------------------------
 # m062x/6-311+g(2df,2p) opt=(verytight,gdiis) freq IOP(2/16=3)
 --------------------------------------------------------------

 --------------------------------------
 InChI=1S/C3H6O2/c4-2-1-3-5/h2,5H,1,3H2
 --------------------------------------
 Symbolic Z-matrix:
 Charge =  0 Multiplicity = 1

 SCF Done:  E(RM062X) =  -268.330739198     A.U. after   12 cycles
 SCF Done:  E(RM062X) =  -268.335003702     A.U. after   12 cycles
 SCF Done:  E(RM062X) =  -268.330860343     A.U. after   12 cycles
 SCF Done:  E(RM062X) =  -268.335416952     A.U. after   12 cycles
 SCF Done:  E(RM062X) =  -268.335447159     A.U. after   10 cycles
 SCF Done:  E(RM062X) =  -268.335452503     A.U. after   10 cycles
 SCF Done:  E(RM062X) =  -268.335455232     A.U. after   10 cycles
 SCF Done:  E(RM062X) =  -268.335457334     A.U. after   10 cycles
 SCF Done:  E(RM062X) =  -268.335458835     A.U. after   10 cycles
 SCF Done:  E(RM062X) =  -268.335459345     A.U. after   10 cycles
 SCF Done:  E(RM062X) =  -268.335459478     A.U. after    3 cycles
 SCF Done:  E(RM062X) =  -268.335459479     A.U. after    3 cycles
 SCF Done:  E(RM062X) =  -268.335459476     A.U. after    5 cycles
 SCF Done:  E(RM062X) =  -268.335459478     A.U. after    4 cycles
 SCF Done:  E(RM062X) =  -268.335459476     A.U. after    5 cycles
 SCF Done:  E(RM062X) =  -268.335459477     A.U. after    3 cycles
 SCF Done:  E(RM062X) =  -268.335459477     A.U. after    3 cycles
 SCF Done:  E(RM062X) =  -268.335459478     A.U. after    3 cycles
 SCF Done:  E(RM062X) =  -268.335459477     A.U. after    3 cycles
 Optimization completed.
    -- Stationary point found.
 Normal termination of Gaussian 09 at Mon Aug  7 08:27:55 2017.

 ----------------------------------------------------------------------
 #N Geom=AllCheck Guess=TCheck SCRF=Check Test GenChk RM062X/6-311+G(2d
 f,2p) Freq
 ----------------------------------------------------------------------

 InChI=1S/C3H6O2/c4-2-1-3-5/h2,5H,1,3H2
 --------------------------------------
 Redundant internal coordinates taken from checkpoint file:
 /gss_gpfs_scratch/harms.n/comparerTST/Gau-22909.chk
 Charge =  0 Multiplicity = 1

                         Standard orientation:
 ---------------------------------------------------------------------
 Center     Atomic      Atomic             Coordinates (Angstroms)
 Number     Number       Type             X           Y           Z
 ---------------------------------------------------------------------
      1          6           0        0.077139   -0.513536    0.180669
      2          6           0       -1.038242    0.474660   -0.121205
      3          6           0        1.398770    0.188286    0.318997
      4          8           0       -2.259793   -0.228679   -0.033421
      5          1           0        0.146265   -1.274853   -0.593569
      6          1           0       -0.154966   -0.996434    1.134660
      7          1           0       -1.009663    1.298791    0.601128
      8          1           0       -0.897236    0.897180   -1.120655
      9          8           0        2.363308   -0.038431   -0.355294
     10          1           0        1.442235    0.967009    1.107354
     11          1           0       -2.980763    0.348727   -0.289959
 ---------------------------------------------------------------------

 SCF Done:  E(RM062X) =  -268.335459477     A.U. after    1 cycles

 The electronic state is 1-A.
 Alpha  occ. eigenvalues --  -19.63822 -19.63334 -10.63562 -10.60487 -10.55096
 Alpha  occ. eigenvalues --   -1.18566  -1.16384  -0.89333  -0.74902  -0.67398
 Alpha  occ. eigenvalues --   -0.61500  -0.57438  -0.54570  -0.51788  -0.50871
 Alpha  occ. eigenvalues --   -0.46747  -0.44662  -0.41672  -0.37011  -0.33724
 Alpha virt. eigenvalues --    0.00304   0.00529   0.02327   0.03499   0.03933
 Alpha virt. eigenvalues --    0.06721   0.07115   0.07455   0.08572   0.08863
 Alpha virt. eigenvalues --    0.11432   0.12394   0.14052   0.18599   0.18894

 Mulliken atomic charges:
              1
     1  C   -0.260639
     2  C   -0.259891
     3  C    0.169870
     4  O   -0.350239
     5  H    0.176490
     6  H    0.166635
     7  H    0.139844
     8  H    0.153306
     9  O   -0.313421
    10  H    0.129202
    11  H    0.248841
 Sum of Mulliken atomic charges =   0.00000

 Dipole moment (field-independent basis, Debye):
    X=             -2.5170    Y=              1.7571    Z=              0.8110  Tot=              3.1750
 Quadrupole moment (field-independent basis, Debye-Ang):
   XX=            -36.3327   YY=            -29.6786   ZZ=            -29.8248
   XY=             -3.5649   XZ=              4.2922   YZ=             -0.3177

  Exact polarizability:  53.808  -0.143  39.409  -2.240   2.251  39.021
 Approx polarizability:  56.369  -0.775  46.388  -4.836   2.260  47.968

                     1                      2                      3
                     A                      A                      A
 Frequencies --    53.8523                96.0925               244.0467
 Red. masses --     3.7118                 3.3334                 1.2229
 Frc consts  --     0.0063                 0.0181                 0.0429
 IR Inten    --     8.3001                11.6181                85.8515

                     4                      5                      6
                     A                      A                      A
 Frequencies --   268.5302               412.6963               528.6394
 Red. masses --     2.0404                 5.4515                 2.4525
 Frc consts  --     0.0867                 0.5471                 0.4038
 IR Inten    --    37.2538                 6.7595                32.8495

                     7                      8                      9
                     A                      A                      A
 Frequencies --   796.6214               875.2999              1014.7718
 Red. masses --     1.3049                 1.3826                 2.5461
 Frc consts  --     0.4879                 0.6241                 1.5448
 IR Inten    --     1.4626                 1.1883                14.8962

                    10                     11                     12
                     A                      A                      A
 Frequencies --  1069.3815              1128.6471              1149.9809
 Red. masses --     2.0766                 4.2854                 2.1191
 Frc consts  --     1.3991                 3.2163                 1.6511
 IR Inten    --    21.0968                80.8809                 6.8134

                    13                     14                     15
                     A                      A                      A
 Frequencies --  1227.0618              1244.8699              1303.8667
 Red. masses --     1.2753                 1.2639                 1.3293
 Frc consts  --     1.1313                 1.1540                 1.3315
 IR Inten    --     3.9542                27.6315                50.8685

                    16                     17                     18
                     A                      A                      A
 Frequencies --  1324.9174              1425.3020              1460.2616
 Red. masses --     1.1779                 1.2146                 1.4324
 Frc consts  --     1.2182                 1.4538                 1.7996
 IR Inten    --     6.1313                 7.6434                10.9921

                    19                     20                     21
                     A                      A                      A
 Frequencies --  1476.5375              1535.7906              1867.2831
 Red. masses --     1.1032                 1.0869                10.5800
 Frc consts  --     1.4171                 1.5105                21.7349
 IR Inten    --     8.1632                 3.5281               217.8386

                    22                     23                     24
                     A                      A                      A
 Frequencies --  2968.7422              3019.5586              3046.8967
 Red. masses --     1.0828                 1.0624                 1.0679
 Frc consts  --     5.6228                 5.7074                 5.8409
 IR Inten    --    76.3608                50.3565                 1.9059

                    25                     26                     27
                     A                      A                      A
 Frequencies --  3070.3478              3138.5509              3920.6005
 Red. masses --     1.0965                 1.0995                 1.0668
 Frc consts  --     6.0900                 6.3814                 9.6609
 IR Inten    --    30.4488                 6.5562                54.0418

 - Thermochemistry -
 -------------------
 Temperature   298.150 Kelvin.  Pressure   1.00000 Atm.
 Atom     1 has atomic number  6 and mass  12.00000

 Molecular mass:    74.03678 amu.
 Principal axes and moments of inertia in atomic units:
                           1         2         3
     Eigenvalues --    77.56837 816.65964 834.49578
           X            0.99989  -0.00972   0.01130
           Y            0.00888   0.99734   0.07229
           Z           -0.01198  -0.07218   0.99732
 This molecule is an asymmetric top.
 Rotational symmetry number  1.
 Rotational temperatures (Kelvin)      1.11661     0.10606     0.10379
 Rotational constants (GHZ):          23.26646     2.20991     2.16267
 Zero-point vibrational energy     237274.2 (Joules/Mol)
                                   56.70989 (Kcal/Mol)
 Warning -- explicit consideration of   6 degrees of freedom as
           vibrations may cause significant error
 Vibrational temperatures:     77.48   138.26   351.13   386.35   593.78
          (Kelvin)            760.59  1146.16  1259.36  1460.03  1538.60
                             1623.87  1654.56  1765.47  1791.09  1875.97
                             1906.26  2050.69  2100.99  2124.41  2209.66
                             2686.60  4271.35  4344.47  4383.80  4417.54
                             4515.67  5640.86

 Zero-point correction=                           0.090373 (Hartree/Particle)
 Thermal correction to Energy=                    0.096549
 Thermal correction to Enthalpy=                  0.097493
 Thermal correction to Gibbs Free Energy=         0.060342
 Sum of electronic and zero-point Energies=           -268.245087
 Sum of electronic and thermal Energies=              -268.238910
 Sum of electronic and thermal Enthalpies=            -268.237966
 Sum of electronic and thermal Free Energies=         -268.275117

                     E (Thermal)             CV                S
                      KCal/Mol        Cal/Mol-Kelvin    Cal/Mol-Kelvin
 Total                   60.585             19.377             78.191
 Electronic               0.000              0.000              0.000
 Translational            0.889              2.981             38.822
 Rotational               0.889              2.981             25.472
 Vibrational             58.808             13.415             13.897
 Vibration     1          0.596              1.976              4.671
 Vibration     2          0.603              1.952              3.532
 Vibration     3          0.659              1.773              1.773
 Vibration     4          0.673              1.731              1.606
 Vibration     5          0.776              1.443              0.917
 Vibration     6          0.884              1.187              0.590

 Normal termination of Gaussian 09 at Mon Aug  7 08:32:36 2017.
