 Gaussian 09, Revision B.01,
 Gaussian 09:  EM64L-G09RevB.01 12-Aug-2010

 --------------------------------------------------------------
 # m062x/6-311+g(2df,2p) opt=(verytight,gdiis) freq IOP(2/16=3)
 --------------------------------------------------------------

 ---------------------------------------------------
 InChI=1S/C7H16O2/c1-6(9-8)5-7(2,3)4/h6,8H,5H2,1-4H3
 ---------------------------------------------------
 Symbolic Z-matrix:
 Charge =  0 Multiplicity = 1

 SCF Done:  E(RM062X) =  -426.674236248     A.U. after   13 cycles
 SCF Done:  E(RM062X) =  -426.686830681     A.U. after   12 cycles
 SCF Done:  E(RM062X) =  -426.688570337     A.U. after   14 cycles
 SCF Done:  E(RM062X) =  -426.689342861     A.U. after   14 cycles
 SCF Done:  E(RM062X) =  -426.689751830     A.U. after   11 cycles
 SCF Done:  E(RM062X) =  -426.689793530     A.U. after   11 cycles
 SCF Done:  E(RM062X) =  -426.689795533     A.U. after    9 cycles
 SCF Done:  E(RM062X) =  -426.689802714     A.U. after    9 cycles
 SCF Done:  E(RM062X) =  -426.689802757     A.U. after    9 cycles
 SCF Done:  E(RM062X) =  -426.689803561     A.U. after    8 cycles
 SCF Done:  E(RM062X) =  -426.689803173     A.U. after    8 cycles
 SCF Done:  E(RM062X) =  -426.689803156     A.U. after    6 cycles
 SCF Done:  E(RM062X) =  -426.689803129     A.U. after    5 cycles
 SCF Done:  E(RM062X) =  -426.689803135     A.U. after    4 cycles
 SCF Done:  E(RM062X) =  -426.689803132     A.U. after    3 cycles
 SCF Done:  E(RM062X) =  -426.689803133     A.U. after    2 cycles
 SCF Done:  E(RM062X) =  -426.689803132     A.U. after    2 cycles
 SCF Done:  E(RM062X) =  -426.689803132     A.U. after    3 cycles
 Optimization completed.
    -- Stationary point found.
 Normal termination of Gaussian 09 at Sat Oct 14 18:38:34 2017.

 ----------------------------------------------------------------------
 #N Geom=AllCheck Guess=TCheck SCRF=Check Test GenChk RM062X/6-311+G(2d
 f,2p) Freq
 ----------------------------------------------------------------------

 InChI=1S/C7H16O2/c1-6(9-8)5-7(2,3)4/h6,8H,5H2,1-4H3
 ---------------------------------------------------
 Redundant internal coordinates taken from checkpoint file:
 /gss_gpfs_scratch/harms.n/comparerTST/Gau-20076.chk
 Charge =  0 Multiplicity = 1

                         Standard orientation:
 ---------------------------------------------------------------------
 Center     Atomic      Atomic             Coordinates (Angstroms)
 Number     Number       Type             X           Y           Z
 ---------------------------------------------------------------------
      1          6           0        1.479258   -0.048365    0.011161
      2          6           0       -1.074339    0.470172    0.135724
      3          6           0        0.269729    0.730255   -0.535207
      4          6           0        1.190014   -1.548219    0.097416
      5          6           0        2.654554    0.181003   -0.941453
      6          6           0        1.860177    0.476474    1.398119
      7          6           0       -2.036100    1.635859   -0.000337
      8          8           0       -1.596470   -0.681841   -0.527442
      9          8           0       -2.732454   -1.129379    0.194754
     10          1           0       -0.943236    0.217113    1.193097
     11          1           0        0.141427    0.512031   -1.600314
     12          1           0        0.487864    1.799150   -0.463784
     13          1           0       -3.022129    1.358638    0.366624
     14          1           0       -1.677182    2.490859    0.572676
     15          1           0       -2.119861    1.927740   -1.047882
     16          1           0        2.088449   -2.084644    0.408125
     17          1           0        0.865506   -1.942892   -0.865789
     18          1           0        0.405721   -1.759864    0.826003
     19          1           0        2.439455   -0.229298   -1.929601
     20          1           0        3.558405   -0.300248   -0.564391
     21          1           0        2.862435    1.246760   -1.055523
     22          1           0        1.050896    0.347103    2.118052
     23          1           0        2.110949    1.538275    1.357511
     24          1           0        2.729927   -0.059654    1.781665
     25          1           0       -2.406990   -1.954376    0.572491
 ---------------------------------------------------------------------

 SCF Done:  E(RM062X) =  -426.689803132     A.U. after    1 cycles

 The electronic state is 1-A.
 Alpha  occ. eigenvalues --  -19.67805 -19.67765 -10.58941 -10.54828 -10.53358
 Alpha  occ. eigenvalues --  -10.52334 -10.52181 -10.52090 -10.52013  -1.26076
 Alpha  occ. eigenvalues --   -1.03157  -0.93092  -0.85471  -0.78124  -0.77857
 Alpha  occ. eigenvalues --   -0.77790  -0.68303  -0.62173  -0.60503  -0.57986
 Alpha  occ. eigenvalues --   -0.54319  -0.52397  -0.51501  -0.49963  -0.47949
 Alpha  occ. eigenvalues --   -0.47074  -0.46451  -0.45456  -0.43754  -0.42885
 Alpha  occ. eigenvalues --   -0.42851  -0.41091  -0.38712  -0.38134  -0.37304
 Alpha  occ. eigenvalues --   -0.37067  -0.34012
 Alpha virt. eigenvalues --    0.00923   0.02040   0.02712   0.03126   0.04601
 Alpha virt. eigenvalues --    0.04868   0.05018   0.05646   0.05999   0.07268
 Alpha virt. eigenvalues --    0.07879   0.08080   0.08519   0.09152   0.09235

 Mulliken atomic charges:
              1
     1  C    0.358376
     2  C    0.023172
     3  C   -0.552762
     4  C   -0.598402
     5  C   -0.505395
     6  C   -0.590910
     7  C   -0.631093
     8  O   -0.093341
     9  O   -0.261396
    10  H    0.176149
    11  H    0.224233
    12  H    0.202906
    13  H    0.174403
    14  H    0.146477
    15  H    0.159087
    16  H    0.176196
    17  H    0.190636
    18  H    0.143670
    19  H    0.165388
    20  H    0.165362
    21  H    0.161156
    22  H    0.161779
    23  H    0.167111
    24  H    0.167188
    25  H    0.270007
 Sum of Mulliken atomic charges =   0.00000

 Dipole moment (field-independent basis, Debye):
    X=              1.3152    Y=              0.0845    Z=              1.1659  Tot=              1.7596
 Quadrupole moment (field-independent basis, Debye-Ang):
   XX=            -63.9314   YY=            -55.2763   ZZ=            -59.3610
   XY=              0.2611   XZ=             -2.5939   YZ=             -2.2764

  Exact polarizability: 106.248   1.160  94.415  -2.225  -1.539  86.475
 Approx polarizability: 113.461   3.202 111.552  -2.592  -1.919 109.597

                     1                      2                      3
                     A                      A                      A
 Frequencies --    61.0964                87.8224               111.6789
 Red. masses --     3.0562                 3.3927                 3.4996
 Frc consts  --     0.0067                 0.0154                 0.0257
 IR Inten    --     0.3494                 0.5830                 4.4184

                     4                      5                      6
                     A                      A                      A
 Frequencies --   202.8489               206.2576               222.5737
 Red. masses --     1.1808                 1.6598                 1.1095
 Frc consts  --     0.0286                 0.0416                 0.0324
 IR Inten    --     0.8362                 2.2855                97.7187

                     7                      8                      9
                     A                      A                      A
 Frequencies --   238.6567               259.4612               282.2288
 Red. masses --     1.2944                 1.3583                 1.9708
 Frc consts  --     0.0434                 0.0539                 0.0925
 IR Inten    --     3.9406                 5.9604                 3.3950

                    10                     11                     12
                     A                      A                      A
 Frequencies --   290.4290               302.7404               327.3973
 Red. masses --     1.0542                 2.6122                 3.0272
 Frc consts  --     0.0524                 0.1411                 0.1912
 IR Inten    --     0.7882                 0.2564                 0.2262

                    13                     14                     15
                     A                      A                      A
 Frequencies --   358.6635               399.5337               414.0172
 Red. masses --     2.1351                 2.4364                 1.8612
 Frc consts  --     0.1618                 0.2291                 0.1880
 IR Inten    --     1.0022                 0.4663                 0.0287

                    16                     17                     18
                     A                      A                      A
 Frequencies --   447.7068               508.2573               578.1894
 Red. masses --     2.5132                 2.3846                 3.2865
 Frc consts  --     0.2968                 0.3629                 0.6473
 IR Inten    --     3.1591                 0.8646                 8.2706

                    19                     20                     21
                     A                      A                      A
 Frequencies --   763.7719               846.1539               892.7522
 Red. masses --     3.1130                 2.2018                 1.7353
 Frc consts  --     1.0699                 0.9288                 0.8149
 IR Inten    --     0.1043                 2.5993                 0.0735

                    22                     23                     24
                     A                      A                      A
 Frequencies --   922.7503               948.3717               954.1398
 Red. masses --     2.0627                 1.6438                 1.5775
 Frc consts  --     1.0348                 0.8711                 0.8462
 IR Inten    --     3.7308                 1.5974                 0.5608

                    25                     26                     27
                     A                      A                      A
 Frequencies --   966.7165               987.1635              1024.7840
 Red. masses --     1.2157                 1.8046                 1.7699
 Frc consts  --     0.6694                 1.0361                 1.0951
 IR Inten    --     0.1010                 6.4734                 5.7124

                    28                     29                     30
                     A                      A                      A
 Frequencies --  1039.7789              1055.6404              1112.6484
 Red. masses --     1.6384                 3.1206                 1.6624
 Frc consts  --     1.0437                 2.0489                 1.2126
 IR Inten    --     2.2559                 3.5763                 6.9070

                    31                     32                     33
                     A                      A                      A
 Frequencies --  1127.7338              1156.1884              1236.5537
 Red. masses --     2.2380                 1.8948                 2.0104
 Frc consts  --     1.6770                 1.4923                 1.8112
 IR Inten    --     7.5921                13.4945                16.4484

                    34                     35                     36
                     A                      A                      A
 Frequencies --  1245.9981              1288.6939              1316.2051
 Red. masses --     2.2619                 2.8575                 1.6503
 Frc consts  --     2.0690                 2.7960                 1.6845
 IR Inten    --     4.0249                 5.2637                 1.0748

                    37                     38                     39
                     A                      A                      A
 Frequencies --  1335.4783              1378.7263              1400.7445
 Red. masses --     1.3989                 1.1992                 1.3938
 Frc consts  --     1.4700                 1.3431                 1.6113
 IR Inten    --     0.1232                 1.0600                21.1224

                    40                     41                     42
                     A                      A                      A
 Frequencies --  1403.7051              1404.0948              1407.5806
 Red. masses --     1.3286                 1.2829                 1.2647
 Frc consts  --     1.5424                 1.4902                 1.4763
 IR Inten    --    21.1114                16.6245                15.3112

                    43                     44                     45
                     A                      A                      A
 Frequencies --  1423.0387              1433.7862              1473.2990
 Red. masses --     1.3132                 1.2633                 1.0820
 Frc consts  --     1.5668                 1.5301                 1.3837
 IR Inten    --    55.8257                 4.2051                 3.2452

                    46                     47                     48
                     A                      A                      A
 Frequencies --  1483.4152              1483.7847              1489.2171
 Red. masses --     1.0484                 1.0449                 1.0578
 Frc consts  --     1.3593                 1.3554                 1.3822
 IR Inten    --     0.5674                 0.5812                 0.9416

                    49                     50                     51
                     A                      A                      A
 Frequencies --  1489.8395              1504.9704              1508.8010
 Red. masses --     1.0466                 1.0509                 1.0657
 Frc consts  --     1.3687                 1.4024                 1.4294
 IR Inten    --     2.9948                 9.7511                 5.1247

                    52                     53                     54
                     A                      A                      A
 Frequencies --  1512.7733              1519.4536              3031.4707
 Red. masses --     1.0665                 1.0693                 1.0354
 Frc consts  --     1.4380                 1.4545                 5.6062
 IR Inten    --     9.1778                14.0967                20.6658

                    55                     56                     57
                     A                      A                      A
 Frequencies --  3032.3151              3037.3014              3043.2432
 Red. masses --     1.0563                 1.0414                 1.0455
 Frc consts  --     5.7224                 5.6604                 5.7049
 IR Inten    --     5.5993                27.4027                 4.3098

                    58                     59                     60
                     A                      A                      A
 Frequencies --  3044.7501              3049.6203              3080.0640
 Red. masses --     1.0657                 1.0396                 1.1024
 Frc consts  --     5.8209                 5.6965                 6.1617
 IR Inten    --    30.8900                22.2667                10.5955

                    61                     62                     63
                     A                      A                      A
 Frequencies --  3103.9362              3106.1867              3108.0710
 Red. masses --     1.1023                 1.1024                 1.1024
 Frc consts  --     6.2572                 6.2668                 6.2744
 IR Inten    --     0.7290                12.2967                19.3730

                    64                     65                     66
                     A                      A                      A
 Frequencies --  3110.5760              3114.7098              3122.8822
 Red. masses --     1.1017                 1.1012                 1.1026
 Frc consts  --     6.2803                 6.2945                 6.3353
 IR Inten    --    51.8363                35.2697                12.8527

                    67                     68                     69
                     A                      A                      A
 Frequencies --  3124.9371              3143.2149              3845.9582
 Red. masses --     1.1021                 1.1017                 1.0684
 Frc consts  --     6.3408                 6.4129                 9.3109
 IR Inten    --    29.4688                 9.0765                39.1929

 - Thermochemistry -
 -------------------
 Temperature   298.150 Kelvin.  Pressure   1.00000 Atm.
 Atom     1 has atomic number  6 and mass  12.00000

 Molecular mass:   132.11503 amu.
 Principal axes and moments of inertia in atomic units:
                           1         2         3
     Eigenvalues --   717.299061885.751572135.99673
           X            0.99969  -0.02454  -0.00477
           Y            0.02446   0.99957  -0.01610
           Z            0.00516   0.01598   0.99986
 This molecule is an asymmetric top.
 Rotational symmetry number  1.
 Warning -- assumption of classical behavior for rotation
           may cause significant error
 Rotational temperatures (Kelvin)      0.12075     0.04593     0.04055
 Rotational constants (GHZ):           2.51602     0.95704     0.84492
 Zero-point vibrational energy     591778.0 (Joules/Mol)
                                  141.43833 (Kcal/Mol)
 Warning -- explicit consideration of  18 degrees of freedom as
           vibrations may cause significant error
 Vibrational temperatures:     87.90   126.36   160.68   291.85   296.76
          (Kelvin)            320.23   343.37   373.31   406.06   417.86
                              435.58   471.05   516.04   574.84   595.68
                              644.15   731.27   831.88  1098.90  1217.43
                             1284.47  1327.63  1364.49  1372.79  1390.89
                             1420.31  1474.43  1496.01  1518.83  1600.85
                             1622.56  1663.50  1779.12  1792.71  1854.14
                             1893.72  1921.45  1983.68  2015.36  2019.62
                             2020.18  2025.19  2047.43  2062.90  2119.75
                             2134.30  2134.83  2142.65  2143.54  2165.31
                             2170.83  2176.54  2186.15  4361.60  4362.82
                             4369.99  4378.54  4380.71  4387.72  4431.52
                             4465.87  4469.10  4471.82  4475.42  4481.37
                             4493.13  4496.08  4522.38  5533.47

 Zero-point correction=                           0.225396 (Hartree/Particle)
 Thermal correction to Energy=                    0.237160
 Thermal correction to Enthalpy=                  0.238104
 Thermal correction to Gibbs Free Energy=         0.188946
 Sum of electronic and zero-point Energies=           -426.464407
 Sum of electronic and thermal Energies=              -426.452643
 Sum of electronic and thermal Enthalpies=            -426.451699
 Sum of electronic and thermal Free Energies=         -426.500857

                     E (Thermal)             CV                S
                      KCal/Mol        Cal/Mol-Kelvin    Cal/Mol-Kelvin
 Total                  148.820             43.572            103.462
 Electronic               0.000              0.000              0.000
 Translational            0.889              2.981             40.548
 Rotational               0.889              2.981             29.448
 Vibrational            147.043             37.610             33.466
 Vibration     1          0.597              1.973              4.421
 Vibration     2          0.601              1.958              3.708
 Vibration     3          0.607              1.940              3.240
 Vibration     4          0.639              1.836              2.107
 Vibration     5          0.641              1.831              2.077
 Vibration     6          0.648              1.807              1.938
 Vibration     7          0.657              1.781              1.813
 Vibration     8          0.668              1.747              1.665
 Vibration     9          0.681              1.707              1.520
 Vibration    10          0.686              1.692              1.471
 Vibration    11          0.694              1.669              1.402
 Vibration    12          0.711              1.621              1.273
 Vibration    13          0.733              1.557              1.128
 Vibration    14          0.766              1.471              0.964
 Vibration    15          0.778              1.440              0.913
 Vibration    16          0.807              1.366              0.803
 Vibration    17          0.863              1.232              0.638
 Vibration    18          0.935              1.078              0.489

 Normal termination of Gaussian 09 at Sat Oct 14 19:40:41 2017.
