 Gaussian 09, Revision B.01,
 Gaussian 09:  EM64L-G09RevB.01 12-Aug-2010

 --------------------------------------------------------------
 # m062x/6-311+g(2df,2p) opt=(verytight,gdiis) freq IOP(2/16=3)
 --------------------------------------------------------------

 ---------------------------------
 InChI=1S/C2H4O/c1-3-2/h1-2H2/u1,2
 ---------------------------------
 Symbolic Z-matrix:
 Charge =  0 Multiplicity = 3

 SCF Done:  E(UM062X) =  -153.639858743     A.U. after   12 cycles
 SCF Done:  E(UM062X) =  -153.653352012     A.U. after   14 cycles
 SCF Done:  E(UM062X) =  -153.661971127     A.U. after   12 cycles
 SCF Done:  E(UM062X) =  -153.662944092     A.U. after   11 cycles
 SCF Done:  E(UM062X) =  -153.663126782     A.U. after    9 cycles
 SCF Done:  E(UM062X) =  -153.663256957     A.U. after   10 cycles
 SCF Done:  E(UM062X) =  -153.666662971     A.U. after   13 cycles
 SCF Done:  E(UM062X) =  -153.671564132     A.U. after   13 cycles
 SCF Done:  E(UM062X) =  -153.673084457     A.U. after   13 cycles
 SCF Done:  E(UM062X) =  -153.673271080     A.U. after   13 cycles
 SCF Done:  E(UM062X) =  -153.674431924     A.U. after   10 cycles
 SCF Done:  E(UM062X) =  -153.674432956     A.U. after    8 cycles
 SCF Done:  E(UM062X) =  -153.674433101     A.U. after    9 cycles
 SCF Done:  E(UM062X) =  -153.674433169     A.U. after    8 cycles
 SCF Done:  E(UM062X) =  -153.674433198     A.U. after    8 cycles
 SCF Done:  E(UM062X) =  -153.674433207     A.U. after   14 cycles
 SCF Done:  E(UM062X) =  -153.674433203     A.U. after   14 cycles
 SCF Done:  E(UM062X) =  -153.674433202     A.U. after    5 cycles
 SCF Done:  E(UM062X) =  -153.674433203     A.U. after   14 cycles
 Optimization completed.
    -- Stationary point found.
 Normal termination of Gaussian 09 at Tue Aug  1 14:08:13 2017.

 ----------------------------------------------------------------------
 #N Geom=AllCheck Guess=TCheck SCRF=Check Test GenChk UM062X/6-311+G(2d
 f,2p) Freq
 ----------------------------------------------------------------------

 InChI=1S/C2H4O/c1-3-2/h1-2H2/u1,2
 ---------------------------------
 Redundant internal coordinates taken from checkpoint file:
 /gss_gpfs_scratch/harms.n/comparerTST/Gau-28411.chk
 Charge =  0 Multiplicity = 3

                         Standard orientation:
 ---------------------------------------------------------------------
 Center     Atomic      Atomic             Coordinates (Angstroms)
 Number     Number       Type             X           Y           Z
 ---------------------------------------------------------------------
      1          6           0        1.147304   -0.215661    0.044955
      2          6           0       -1.147303   -0.215661   -0.044956
      3          8           0        0.000000    0.524808    0.000000
      4          1           0        1.127007   -1.185601   -0.434975
      5          1           0        2.043564    0.380335    0.088450
      6          1           0       -1.127008   -1.185601    0.434975
      7          1           0       -2.043564    0.380335   -0.088451
 ---------------------------------------------------------------------

 SCF Done:  E(UM062X) =  -153.674433203     A.U. after    1 cycles

 The electronic state is 3-A.
 Alpha  occ. eigenvalues --  -19.67708 -10.59654 -10.59652  -1.22024  -0.83343
 Alpha  occ. eigenvalues --   -0.72060  -0.59357  -0.58766  -0.54029  -0.47396
 Alpha  occ. eigenvalues --   -0.43891  -0.29751  -0.23035
 Alpha virt. eigenvalues --    0.03039   0.03801   0.04347   0.06704   0.07220
 Alpha virt. eigenvalues --    0.08313   0.10768   0.14633   0.15841   0.18748
 Alpha virt. eigenvalues --    0.21614   0.22775   0.23691   0.23767   0.26539

  Beta  occ. eigenvalues --  -19.67095 -10.58884 -10.58884  -1.19749  -0.79650
  Beta  occ. eigenvalues --   -0.68265  -0.57809  -0.56586  -0.48849  -0.44120
  Beta  occ. eigenvalues --   -0.42532
  Beta virt. eigenvalues --   -0.04239  -0.00971   0.02004   0.03823   0.04305
  Beta virt. eigenvalues --    0.06407   0.07229   0.10708   0.11495   0.12678
  Beta virt. eigenvalues --    0.15203   0.18890   0.20956   0.24306   0.24428

 Mulliken atomic charges:
              1
     1  C   -0.281136
     2  C   -0.281136
     3  O   -0.059388
     4  H    0.148851
     5  H    0.161979
     6  H    0.148851
     7  H    0.161979
 Sum of Mulliken atomic charges =   0.00000

 Dipole moment (field-independent basis, Debye):
    X=              0.0000    Y=             -0.7321    Z=              0.0000  Tot=              0.7321
 Quadrupole moment (field-independent basis, Debye-Ang):
   XX=            -16.0916   YY=            -19.0872   ZZ=            -21.1325
   XY=              0.0000   XZ=             -0.7901   YZ=              0.0000

  Exact polarizability:  36.991   0.000  27.240   0.214   0.000  27.749
 Approx polarizability:  35.022   0.000  30.815   0.063   0.000  28.867

                     1                      2                      3
                     A                      A                      A
 Frequencies --   184.3142               247.8222               462.9821
 Red. masses --     1.3095                 1.0436                 2.3788
 Frc consts  --     0.0262                 0.0378                 0.3004
 IR Inten    --    10.3157                 5.1548                 1.5775

                     4                      5                      6
                     A                      A                      A
 Frequencies --   642.7468               661.6394              1064.6646
 Red. masses --     1.3114                 1.3049                 2.9305
 Frc consts  --     0.3192                 0.3366                 1.9571
 IR Inten    --    66.3670                 9.6656                21.2887

                     7                      8                      9
                     A                      A                      A
 Frequencies --  1127.7073              1260.3313              1309.3113
 Red. masses --     1.2476                 1.6409                 6.6017
 Frc consts  --     0.9348                 1.5357                 6.6679
 IR Inten    --     5.6684                30.6800               300.6091

                    10                     11                     12
                     A                      A                      A
 Frequencies --  1450.9384              1496.2882              3141.6283
 Red. masses --     1.1033                 1.1855                 1.0472
 Frc consts  --     1.3685                 1.5638                 6.0896
 IR Inten    --     8.4148                 0.0022                30.9041

                    13                     14                     15
                     A                      A                      A
 Frequencies --  3148.4763              3298.6267              3301.8405
 Red. masses --     1.0486                 1.1208                 1.1231
 Frc consts  --     6.1242                 7.1851                 7.2138
 IR Inten    --     9.7758                 3.4588                 2.5259

 - Thermochemistry -
 -------------------
 Temperature   298.150 Kelvin.  Pressure   1.00000 Atm.
 Atom     1 has atomic number  6 and mass  12.00000

 Molecular mass:    44.02621 amu.
 Principal axes and moments of inertia in atomic units:
                           1         2         3
     Eigenvalues --    32.23017 153.60866 182.71992
           X            0.99989   0.00000  -0.01457
           Y            0.00000   1.00000   0.00000
           Z            0.01457   0.00000   0.99989
 This molecule is an asymmetric top.
 Rotational symmetry number  1.
 Rotational temperatures (Kelvin)      2.68735     0.56386     0.47403
 Rotational constants (GHZ):          55.99540    11.74896     9.87709
 Zero-point vibrational energy     136370.2 (Joules/Mol)
                                   32.59326 (Kcal/Mol)
 Warning -- explicit consideration of   3 degrees of freedom as
           vibrations may cause significant error
 Vibrational temperatures:    265.19   356.56   666.13   924.77   951.95
          (Kelvin)           1531.81  1622.52  1813.33  1883.80  2087.57
                             2152.82  4520.10  4529.95  4745.98  4750.61

 Zero-point correction=                           0.051941 (Hartree/Particle)
 Thermal correction to Energy=                    0.056454
 Thermal correction to Enthalpy=                  0.057399
 Thermal correction to Gibbs Free Energy=         0.025744
 Sum of electronic and zero-point Energies=           -153.622493
 Sum of electronic and thermal Energies=              -153.617979
 Sum of electronic and thermal Enthalpies=            -153.617035
 Sum of electronic and thermal Free Energies=         -153.648690

                     E (Thermal)             CV                S
                      KCal/Mol        Cal/Mol-Kelvin    Cal/Mol-Kelvin
 Total                   35.426             13.814             66.623
 Electronic               0.000              0.000              2.183
 Translational            0.889              2.981             37.273
 Rotational               0.889              2.981             21.430
 Vibrational             33.648              7.853              5.737
 Vibration     1          0.631              1.861              2.284
 Vibration     2          0.661              1.766              1.746
 Vibration     3          0.821              1.332              0.757

 Optimization completed.
    -- Stationary point found.
 Normal termination of Gaussian 09 at Tue Aug  1 14:10:39 2017.
