 Gaussian 09, Revision B.01,
 Gaussian 09:  EM64L-G09RevB.01 12-Aug-2010

 --------------------------------------------------------------
 # m062x/6-311+g(2df,2p) opt=(verytight,gdiis) freq IOP(2/16=3)
 --------------------------------------------------------------

 -------------------------------------
 InChI=1S/C4H8O/c1-4(2)3-5/h3-4H,1-2H3
 -------------------------------------
 Symbolic Z-matrix:
 Charge =  0 Multiplicity = 1

 SCF Done:  E(RM062X) =  -232.421222838     A.U. after   12 cycles
 SCF Done:  E(RM062X) =  -232.425676143     A.U. after   11 cycles
 SCF Done:  E(RM062X) =  -232.425922512     A.U. after   13 cycles
 SCF Done:  E(RM062X) =  -232.425921953     A.U. after   13 cycles
 SCF Done:  E(RM062X) =  -232.425938472     A.U. after   13 cycles
 SCF Done:  E(RM062X) =  -232.425945072     A.U. after   13 cycles
 SCF Done:  E(RM062X) =  -232.425945088     A.U. after    6 cycles
 SCF Done:  E(RM062X) =  -232.425945088     A.U. after    4 cycles
 SCF Done:  E(RM062X) =  -232.425945088     A.U. after    2 cycles
 Optimization completed.
    -- Stationary point found.
 Normal termination of Gaussian 09 at Fri Feb 17 00:43:41 2017.

 ----------------------------------------------------------------------
 #N Geom=AllCheck Guess=TCheck SCRF=Check Test GenChk RM062X/6-311+G(2d
 f,2p) Freq
 ----------------------------------------------------------------------

 InChI=1S/C4H8O/c1-4(2)3-5/h3-4H,1-2H3
 -------------------------------------
 Redundant internal coordinates taken from checkpoint file:
 /gss_gpfs_scratch/westgroup/rwest-autotst-1/Gau-42365.chk
 Charge =  0 Multiplicity = 1

                         Standard orientation:
 ---------------------------------------------------------------------
 Center     Atomic      Atomic             Coordinates (Angstroms)
 Number     Number       Type             X           Y           Z
 ---------------------------------------------------------------------
      1          6           0        0.339824    0.000000   -0.352107
      2          6           0        1.109823    1.260876    0.044270
      3          6           0        1.109835   -1.260870    0.044268
      4          6           0       -0.990895   -0.000005    0.354095
      5          1           0        0.138414    0.000000   -1.423562
      6          1           0        1.261852    1.293960    1.125142
      7          1           0        2.091056    1.266844   -0.429348
      8          1           0        0.578863    2.164200   -0.253563
      9          1           0        2.091068   -1.266828   -0.429348
     10          1           0        1.261863   -1.293955    1.125140
     11          1           0        0.578883   -2.164198   -0.253567
     12          8           0       -2.061750   -0.000002   -0.183470
     13          1           0       -0.919523   -0.000012    1.463715
 ---------------------------------------------------------------------

 SCF Done:  E(RM062X) =  -232.425945088     A.U. after    1 cycles

 The electronic state is 1-A.
 Alpha  occ. eigenvalues --  -19.62784 -10.62727 -10.55520 -10.54198 -10.54197
 Alpha  occ. eigenvalues --   -1.18003  -0.92047  -0.79513  -0.73608  -0.65811
 Alpha  occ. eigenvalues --   -0.55402  -0.54735  -0.51426  -0.50941  -0.46929
 Alpha  occ. eigenvalues --   -0.45340  -0.44994  -0.41554  -0.41229  -0.32695
 Alpha virt. eigenvalues --    0.00993   0.01269   0.02804   0.03674   0.03835
 Alpha virt. eigenvalues --    0.05865   0.06929   0.07043   0.07270   0.07416
 Alpha virt. eigenvalues --    0.09856   0.11085   0.11570   0.12478   0.13451

 Mulliken atomic charges:
              1
     1  C   -0.153894
     2  C   -0.445383
     3  C   -0.445383
     4  C    0.149061
     5  H    0.182990
     6  H    0.153794
     7  H    0.142750
     8  H    0.153464
     9  H    0.142750
    10  H    0.153794
    11  H    0.153464
    12  O   -0.327455
    13  H    0.140049
 Sum of Mulliken atomic charges =   0.00000

 Dipole moment (field-independent basis, Debye):
    X=              2.9289    Y=              0.0000    Z=              0.7176  Tot=              3.0155
 Quadrupole moment (field-independent basis, Debye-Ang):
   XX=            -38.7796   YY=            -31.1420   ZZ=            -31.2089
   XY=              0.0000   XZ=             -1.7299   YZ=              0.0000

  Exact polarizability:  57.783   0.001  48.982   1.911   0.000  47.651
 Approx polarizability:  66.003   0.000  54.320   4.119   0.000  59.230

                     1                      2                      3
                     A                      A                      A
 Frequencies --    73.2185               206.4582               241.3603
 Red. masses --     3.6138                 1.0239                 1.0833
 Frc consts  --     0.0114                 0.0257                 0.0372
 IR Inten    --     6.9612                 0.0505                 0.8957

                     4                      5                      6
                     A                      A                      A
 Frequencies --   329.4016               339.4129               361.9129
 Red. masses --     2.3420                 1.9557                 2.3866
 Frc consts  --     0.1497                 0.1327                 0.1842
 IR Inten    --     0.1899                 1.3976                 7.8313

                     7                      8                      9
                     A                      A                      A
 Frequencies --   553.6024               855.9880               933.9335
 Red. masses --     3.9325                 1.8265                 2.0839
 Frc consts  --     0.7101                 0.7885                 1.0709
 IR Inten    --     6.3931                20.9822                16.8461

                    10                     11                     12
                     A                      A                      A
 Frequencies --   935.2258               955.7641              1000.7397
 Red. masses --     1.1729                 1.2774                 2.1162
 Frc consts  --     0.6044                 0.6875                 1.2487
 IR Inten    --     1.4854                 0.3762                 0.4712

                    13                     14                     15
                     A                      A                      A
 Frequencies --  1148.3123              1187.4155              1193.1422
 Red. masses --     2.1745                 1.7762                 1.9720
 Frc consts  --     1.6894                 1.4756                 1.6540
 IR Inten    --     1.2825                 0.0420                10.5833

                    16                     17                     18
                     A                      A                      A
 Frequencies --  1323.9222              1348.8365              1399.4838
 Red. masses --     1.5412                 1.3634                 1.2381
 Frc consts  --     1.5916                 1.4615                 1.4287
 IR Inten    --     0.7136                 0.5549                 4.7159

                    19                     20                     21
                     A                      A                      A
 Frequencies --  1412.2767              1428.1842              1491.8226
 Red. masses --     1.2225                 1.2201                 1.0463
 Frc consts  --     1.4366                 1.4663                 1.3719
 IR Inten    --     4.0756                 1.5642                 0.4008

                    22                     23                     24
                     A                      A                      A
 Frequencies --  1494.4489              1508.1537              1515.9942
 Red. masses --     1.0426                 1.0476                 1.0613
 Frc consts  --     1.3719                 1.4039                 1.4371
 IR Inten    --     2.7214                 9.1136                16.0057

                    25                     26                     27
                     A                      A                      A
 Frequencies --  1870.0911              2924.9529              3042.3692
 Red. masses --    10.8281                 1.0824                 1.0353
 Frc consts  --    22.3115                 5.4561                 5.6460
 IR Inten    --   234.0569                81.1239                14.9631

                    28                     29                     30
                     A                      A                      A
 Frequencies --  3043.6674              3088.3889              3111.2688
 Red. masses --     1.0360                 1.0872                 1.1020
 Frc consts  --     5.6545                 6.1097                 6.2851
 IR Inten    --    14.9469                 2.1938                 0.4203

                    31                     32                     33
                     A                      A                      A
 Frequencies --  3117.7191              3128.6569              3129.5846
 Red. masses --     1.0996                 1.1026                 1.1024
 Frc consts  --     6.2972                 6.3591                 6.3613
 IR Inten    --    32.1782                13.4696                15.0730

 - Thermochemistry -
 -------------------
 Temperature   298.150 Kelvin.  Pressure   1.00000 Atm.
 Atom     1 has atomic number  6 and mass  12.00000

 Molecular mass:    72.05751 amu.
 Principal axes and moments of inertia in atomic units:
                           1         2         3
     Eigenvalues --   232.19802 480.05177 634.99818
           X            0.99998   0.00000  -0.00616
           Y            0.00000   1.00000   0.00000
           Z            0.00616   0.00000   0.99998
 This molecule is an asymmetric top.
 Rotational symmetry number  1.
 Rotational temperatures (Kelvin)      0.37302     0.18043     0.13640
 Rotational constants (GHZ):           7.77242     3.75947     2.84212
 Zero-point vibrational energy     297246.4 (Joules/Mol)
                                   71.04358 (Kcal/Mol)
 Warning -- explicit consideration of   7 degrees of freedom as
           vibrations may cause significant error
 Vibrational temperatures:    105.34   297.05   347.26   473.93   488.34
          (Kelvin)            520.71   796.51  1231.57  1343.72  1345.58
                             1375.13  1439.84  1652.16  1708.42  1716.66
                             1904.83  1940.67  2013.54  2031.95  2054.84
                             2146.40  2150.18  2169.89  2181.17  2690.64
                             4208.35  4377.29  4379.15  4443.50  4476.42
                             4485.70  4501.43  4502.77

 Zero-point correction=                           0.113215 (Hartree/Particle)
 Thermal correction to Energy=                    0.119533
 Thermal correction to Enthalpy=                  0.120477
 Thermal correction to Gibbs Free Energy=         0.083672
 Sum of electronic and zero-point Energies=           -232.312730
 Sum of electronic and thermal Energies=              -232.306412
 Sum of electronic and thermal Enthalpies=            -232.305468
 Sum of electronic and thermal Free Energies=         -232.342273

                     E (Thermal)             CV                S
                      KCal/Mol        Cal/Mol-Kelvin    Cal/Mol-Kelvin
 Total                   75.008             21.256             77.464
 Electronic               0.000              0.000              0.000
 Translational            0.889              2.981             38.741
 Rotational               0.889              2.981             25.762
 Vibrational             73.231             15.295             12.960
 Vibration     1          0.599              1.967              4.065
 Vibration     2          0.641              1.831              2.075
 Vibration     3          0.658              1.777              1.793
 Vibration     4          0.712              1.617              1.263
 Vibration     5          0.719              1.597              1.215
 Vibration     6          0.736              1.551              1.114
 Vibration     7          0.909              1.132              0.537

 Normal termination of Gaussian 09 at Fri Feb 17 00:51:24 2017.
