 Gaussian 09, Revision B.01,
 Gaussian 09:  EM64L-G09RevB.01 12-Aug-2010

 --------------------------------------------------------------
 # m062x/6-311+g(2df,2p) opt=(verytight,gdiis) freq IOP(2/16=3)
 --------------------------------------------------------------

 ------------------------------------------
 InChI=1S/C5H7O/c1-3-5(6)4-2/h3H,1-2,4H2/u2
 ------------------------------------------
 Symbolic Z-matrix:
 Charge =  0 Multiplicity = 2

 SCF Done:  E(UM062X) =  -269.825694174     A.U. after   18 cycles
 SCF Done:  E(UM062X) =  -269.836677656     A.U. after   14 cycles
 SCF Done:  E(UM062X) =  -269.841166833     A.U. after   14 cycles
 SCF Done:  E(UM062X) =  -269.841412288     A.U. after   17 cycles
 SCF Done:  E(UM062X) =  -269.842111835     A.U. after   17 cycles
 SCF Done:  E(UM062X) =  -269.842232383     A.U. after   17 cycles
 SCF Done:  E(UM062X) =  -269.842323568     A.U. after   13 cycles
 SCF Done:  E(UM062X) =  -269.842403324     A.U. after   13 cycles
 SCF Done:  E(UM062X) =  -269.842466022     A.U. after   12 cycles
 SCF Done:  E(UM062X) =  -269.842556359     A.U. after   17 cycles
 SCF Done:  E(UM062X) =  -269.842735557     A.U. after    9 cycles
 SCF Done:  E(UM062X) =  -269.842735554     A.U. after    7 cycles
 SCF Done:  E(UM062X) =  -269.842735534     A.U. after    5 cycles
 SCF Done:  E(UM062X) =  -269.842735527     A.U. after    6 cycles
 SCF Done:  E(UM062X) =  -269.842735527     A.U. after    2 cycles
 SCF Done:  E(UM062X) =  -269.842735526     A.U. after    3 cycles
 SCF Done:  E(UM062X) =  -269.842735527     A.U. after    3 cycles
 SCF Done:  E(UM062X) =  -269.842735526     A.U. after    3 cycles
 SCF Done:  E(UM062X) =  -269.842735526     A.U. after    2 cycles
 Optimization completed.
    -- Stationary point found.
 Normal termination of Gaussian 09 at Tue Mar  7 21:03:13 2017.

 ----------------------------------------------------------------------
 #N Geom=AllCheck Guess=TCheck SCRF=Check Test GenChk UM062X/6-311+G(2d
 f,2p) Freq
 ----------------------------------------------------------------------

 InChI=1S/C5H7O/c1-3-5(6)4-2/h3H,1-2,4H2/u2
 ------------------------------------------
 Redundant internal coordinates taken from checkpoint file:
 /gss_gpfs_scratch/westgroup/rwest-autotst-1/Gau-11668.chk
 Charge =  0 Multiplicity = 2

                         Standard orientation:
 ---------------------------------------------------------------------
 Center     Atomic      Atomic             Coordinates (Angstroms)
 Number     Number       Type             X           Y           Z
 ---------------------------------------------------------------------
      1          6           0       -1.422812    0.146644    0.530894
      2          6           0        0.021911    0.452915    0.135997
      3          6           0        0.970706   -0.699064    0.199616
      4          6           0       -2.027641   -0.748803   -0.491074
      5          6           0        2.248302   -0.548946   -0.118756
      6          1           0       -1.425243   -0.329423    1.513149
      7          1           0       -1.943754    1.101814    0.593239
      8          8           0        0.359950    1.548094   -0.233791
      9          1           0        0.574918   -1.652638    0.528372
     10          1           0       -2.256381   -0.360482   -1.471758
     11          1           0       -2.133682   -1.808839   -0.323265
     12          1           0        2.611392    0.417549   -0.445630
     13          1           0        2.950357   -1.369207   -0.063843
 ---------------------------------------------------------------------

 SCF Done:  E(UM062X) =  -269.842735526     A.U. after    1 cycles

 The electronic state is 2-A.
 Alpha  occ. eigenvalues --  -19.61854 -10.63384 -10.56131 -10.55687 -10.55334
 Alpha  occ. eigenvalues --  -10.55274  -1.17561  -0.90948  -0.87919  -0.74956
 Alpha  occ. eigenvalues --   -0.69986  -0.60995  -0.57639  -0.55346  -0.53043
 Alpha  occ. eigenvalues --   -0.50407  -0.48852  -0.45769  -0.44553  -0.43352
 Alpha  occ. eigenvalues --   -0.35064  -0.34366  -0.27140
 Alpha virt. eigenvalues --   -0.02737   0.01196   0.02768   0.03458   0.03794
 Alpha virt. eigenvalues --    0.05664   0.05950   0.07008   0.07455   0.07677
 Alpha virt. eigenvalues --    0.08944   0.10076   0.10261   0.11762   0.12133

  Beta  occ. eigenvalues --  -19.61816 -10.63285 -10.55677 -10.55476 -10.55337
  Beta  occ. eigenvalues --  -10.55336  -1.17422  -0.90299  -0.86938  -0.73051
  Beta  occ. eigenvalues --   -0.68604  -0.60794  -0.57199  -0.54678  -0.52499
  Beta  occ. eigenvalues --   -0.49764  -0.48343  -0.45484  -0.43964  -0.42998
  Beta  occ. eigenvalues --   -0.34803  -0.33142
  Beta virt. eigenvalues --   -0.05233  -0.01445   0.00866   0.02792   0.03312
  Beta virt. eigenvalues --    0.03622   0.05655   0.06161   0.06948   0.07469
  Beta virt. eigenvalues --    0.07637   0.09104   0.09914   0.10518   0.11279

 Mulliken atomic charges:
              1
     1  C   -0.222616
     2  C    0.226660
     3  C    0.002877
     4  C   -0.439154
     5  C   -0.349191
     6  H    0.179538
     7  H    0.176165
     8  O   -0.392375
     9  H    0.155881
    10  H    0.184406
    11  H    0.173982
    12  H    0.163840
    13  H    0.139987
 Sum of Mulliken atomic charges =   0.00000

 Dipole moment (field-independent basis, Debye):
    X=             -0.2898    Y=             -2.5956    Z=              0.7446  Tot=              2.7158
 Quadrupole moment (field-independent basis, Debye-Ang):
   XX=            -33.4482   YY=            -39.6013   ZZ=            -36.9652
   XY=             -1.7748   XZ=             -0.3828   YZ=              0.0715

  Exact polarizability:  83.267   0.815  60.836  -2.057  -0.866  47.941
 Approx polarizability:  87.606   3.021  74.803  -3.616  -3.006  59.485

                     1                      2                      3
                     A                      A                      A
 Frequencies --    66.0366                76.9897               102.5581
 Red. masses --     1.7665                 1.6780                 1.7294
 Frc consts  --     0.0045                 0.0059                 0.0107
 IR Inten    --     3.7300                 1.7523                 1.0027

                     4                      5                      6
                     A                      A                      A
 Frequencies --   221.0253               290.3231               415.7567
 Red. masses --     2.9794                 2.6936                 2.5998
 Frc consts  --     0.0858                 0.1338                 0.2648
 IR Inten    --     1.4167                 2.0384                10.9661

                     7                      8                      9
                     A                      A                      A
 Frequencies --   491.4550               523.9518               612.3666
 Red. masses --     1.3735                 1.8931                 2.9665
 Frc consts  --     0.1955                 0.3062                 0.6554
 IR Inten    --    28.9137                12.2296                36.2992

                    10                     11                     12
                     A                      A                      A
 Frequencies --   773.4693               782.1008               820.5001
 Red. masses --     2.6753                 1.4435                 2.1870
 Frc consts  --     0.9430                 0.5202                 0.8675
 IR Inten    --     5.1600                 4.5579                 8.2482

                    13                     14                     15
                     A                      A                      A
 Frequencies --  1021.8272              1030.4316              1035.0010
 Red. masses --     1.6812                 1.2498                 1.2212
 Frc consts  --     1.0343                 0.7819                 0.7707
 IR Inten    --    28.1289                 0.4485                46.1843

                    16                     17                     18
                     A                      A                      A
 Frequencies --  1076.5413              1086.7220              1167.8320
 Red. masses --     2.9395                 1.6430                 2.4850
 Frc consts  --     2.0072                 1.1432                 1.9968
 IR Inten    --     1.4718                13.1599                80.9099

                    19                     20                     21
                     A                      A                      A
 Frequencies --  1261.1821              1270.7753              1334.2626
 Red. masses --     1.3190                 1.3046                 1.4194
 Frc consts  --     1.2361                 1.2412                 1.4888
 IR Inten    --     0.9516                27.4720                 5.3816

                    22                     23                     24
                     A                      A                      A
 Frequencies --  1442.6562              1464.3601              1477.2012
 Red. masses --     1.2348                 1.1096                 1.1572
 Frc consts  --     1.5142                 1.4018                 1.4878
 IR Inten    --    58.5011                 3.0008                 3.9896

                    25                     26                     27
                     A                      A                      A
 Frequencies --  1704.2307              1831.7958              3049.5520
 Red. masses --     4.9460                10.5465                 1.0584
 Frc consts  --     8.4637                20.8504                 5.7993
 IR Inten    --    40.8860               187.4856                 6.9791

                    28                     29                     30
                     A                      A                      A
 Frequencies --  3112.9473              3156.2867              3168.8549
 Red. masses --     1.1047                 1.0578                 1.0503
 Frc consts  --     6.3071                 6.2087                 6.2142
 IR Inten    --     3.5857                 2.6581                 4.3769

                    31                     32                     33
                     A                      A                      A
 Frequencies --  3185.6962              3250.4054              3277.4890
 Red. masses --     1.0941                 1.1179                 1.1202
 Frc consts  --     6.5422                 6.9589                 7.0896
 IR Inten    --     4.2804                 0.1702                 1.9541

 - Thermochemistry -
 -------------------
 Temperature   298.150 Kelvin.  Pressure   1.00000 Atm.
 Atom     1 has atomic number  6 and mass  12.00000

 Molecular mass:    83.04969 amu.
 Principal axes and moments of inertia in atomic units:
                           1         2         3
     Eigenvalues --   286.04129 687.97617 877.93949
           X            0.99997  -0.00720  -0.00215
           Y            0.00721   0.99996   0.00527
           Z            0.00211  -0.00529   0.99998
 This molecule is an asymmetric top.
 Rotational symmetry number  1.
 Rotational temperatures (Kelvin)      0.30280     0.12590     0.09866
 Rotational constants (GHZ):           6.30937     2.62326     2.05566
 Zero-point vibrational energy     272644.4 (Joules/Mol)
                                   65.16357 (Kcal/Mol)
 Warning -- explicit consideration of   9 degrees of freedom as
           vibrations may cause significant error
 Vibrational temperatures:     95.01   110.77   147.56   318.01   417.71
          (Kelvin)            598.18   707.09   753.85   881.06  1112.85
                             1125.27  1180.52  1470.18  1482.56  1489.13
                             1548.90  1563.55  1680.25  1814.56  1828.36
                             1919.70  2075.66  2106.88  2125.36  2452.00
                             2635.54  4387.62  4478.83  4541.19  4559.27
                             4583.50  4676.60  4715.57

 Zero-point correction=                           0.103845 (Hartree/Particle)
 Thermal correction to Energy=                    0.111305
 Thermal correction to Enthalpy=                  0.112249
 Thermal correction to Gibbs Free Energy=         0.071350
 Sum of electronic and zero-point Energies=           -269.738891
 Sum of electronic and thermal Energies=              -269.731431
 Sum of electronic and thermal Enthalpies=            -269.730487
 Sum of electronic and thermal Free Energies=         -269.771386

                     E (Thermal)             CV                S
                      KCal/Mol        Cal/Mol-Kelvin    Cal/Mol-Kelvin
 Total                   69.845             24.884             86.080
 Electronic               0.000              0.000              1.377
 Translational            0.889              2.981             39.164
 Rotational               0.889              2.981             26.649
 Vibrational             68.067             18.923             18.889
 Vibration     1          0.597              1.970              4.268
 Vibration     2          0.599              1.965              3.966
 Vibration     3          0.605              1.947              3.405
 Vibration     4          0.648              1.809              1.951
 Vibration     5          0.686              1.692              1.472
 Vibration     6          0.779              1.436              0.907
 Vibration     7          0.847              1.269              0.680
 Vibration     8          0.879              1.197              0.601
 Vibration     9          0.972              1.006              0.429

 Normal termination of Gaussian 09 at Tue Mar  7 21:18:11 2017.
