 Gaussian 09, Revision B.01,
 Gaussian 09:  EM64L-G09RevB.01 12-Aug-2010

 --------------------------------------------------------------
 # m062x/6-311+g(2df,2p) opt=(verytight,gdiis) freq IOP(2/16=3)
 --------------------------------------------------------------

 --------------------------------------------------
 InChI=1S/C6H12O/c1-3-6-5(2)4-7-6/h5-6H,3-4H2,1-2H3
 --------------------------------------------------
 Symbolic Z-matrix:
 Charge =  0 Multiplicity = 1

 SCF Done:  E(RM062X) =  -311.003336147     A.U. after   11 cycles
 SCF Done:  E(RM062X) =  -311.011184870     A.U. after   10 cycles
 SCF Done:  E(RM062X) =  -311.011331946     A.U. after    9 cycles
 SCF Done:  E(RM062X) =  -311.011360828     A.U. after    9 cycles
 SCF Done:  E(RM062X) =  -311.011378902     A.U. after    9 cycles
 SCF Done:  E(RM062X) =  -311.011396954     A.U. after    9 cycles
 SCF Done:  E(RM062X) =  -311.011442475     A.U. after   10 cycles
 SCF Done:  E(RM062X) =  -311.011581427     A.U. after   11 cycles
 SCF Done:  E(RM062X) =  -311.011602887     A.U. after    8 cycles
 SCF Done:  E(RM062X) =  -311.011608512     A.U. after    9 cycles
 SCF Done:  E(RM062X) =  -311.011617386     A.U. after    9 cycles
 SCF Done:  E(RM062X) =  -311.011618089     A.U. after    8 cycles
 SCF Done:  E(RM062X) =  -311.011618060     A.U. after    5 cycles
 SCF Done:  E(RM062X) =  -311.011618046     A.U. after    4 cycles
 SCF Done:  E(RM062X) =  -311.011618000     A.U. after    6 cycles
 SCF Done:  E(RM062X) =  -311.011618003     A.U. after    3 cycles
 SCF Done:  E(RM062X) =  -311.011618001     A.U. after    3 cycles
 SCF Done:  E(RM062X) =  -311.011618003     A.U. after    3 cycles
 SCF Done:  E(RM062X) =  -311.011618002     A.U. after    2 cycles
 Optimization completed.
    -- Stationary point found.
 Normal termination of Gaussian 09 at Tue Sep 19 01:22:02 2017.

 ----------------------------------------------------------------------
 #N Geom=AllCheck Guess=TCheck SCRF=Check Test GenChk RM062X/6-311+G(2d
 f,2p) Freq
 ----------------------------------------------------------------------

 InChI=1S/C6H12O/c1-3-6-5(2)4-7-6/h5-6H,3-4H2,1-2H3
 --------------------------------------------------
 Redundant internal coordinates taken from checkpoint file:
 /gss_gpfs_scratch/harms.n/comparerTST/Gau-20763.chk
 Charge =  0 Multiplicity = 1

                         Standard orientation:
 ---------------------------------------------------------------------
 Center     Atomic      Atomic             Coordinates (Angstroms)
 Number     Number       Type             X           Y           Z
 ---------------------------------------------------------------------
      1          6           0        0.764739    0.490337    0.400995
      2          6           0       -0.180055   -0.413173   -0.413320
      3          6           0       -1.562875   -0.676509    0.128712
      4          6           0        1.734977   -0.694114    0.273555
      5          6           0        1.171660    1.824174   -0.186878
      6          6           0       -2.420401    0.582737    0.069152
      7          8           0        0.708914   -1.534245   -0.272804
      8          1           0        0.401710    0.605295    1.423757
      9          1           0       -0.237277   -0.101432   -1.464977
     10          1           0       -2.022404   -1.484019   -0.445045
     11          1           0       -1.467659   -1.029695    1.157964
     12          1           0        2.537257   -0.522459   -0.450705
     13          1           0        2.154395   -1.105818    1.191529
     14          1           0       -2.523179    0.939484   -0.956677
     15          1           0       -1.972063    1.386231    0.656440
     16          1           0       -3.419337    0.402415    0.462303
     17          1           0        0.327592    2.514609   -0.215276
     18          1           0        1.965496    2.290938    0.397387
     19          1           0        1.535894    1.697702   -1.207562
 ---------------------------------------------------------------------

 SCF Done:  E(RM062X) =  -311.011618002     A.U. after    1 cycles

 The electronic state is 1-A.
 Alpha  occ. eigenvalues --  -19.61304 -10.58294 -10.57939 -10.54263 -10.53080
 Alpha  occ. eigenvalues --  -10.52960 -10.52808  -1.16546  -0.89460  -0.86891
 Alpha  occ. eigenvalues --   -0.77705  -0.75887  -0.69180  -0.63601  -0.56300
 Alpha  occ. eigenvalues --   -0.54514  -0.53573  -0.51256  -0.48348  -0.47722
 Alpha  occ. eigenvalues --   -0.46525  -0.43352  -0.42622  -0.41828  -0.40631
 Alpha  occ. eigenvalues --   -0.36699  -0.35669  -0.31928
 Alpha virt. eigenvalues --    0.01147   0.02396   0.02749   0.03043   0.04664
 Alpha virt. eigenvalues --    0.05077   0.05662   0.05897   0.06482   0.07769
 Alpha virt. eigenvalues --    0.09039   0.09067   0.09442   0.09591   0.11369

 Mulliken atomic charges:
              1
     1  C    0.021784
     2  C   -0.247015
     3  C   -0.148193
     4  C   -0.147010
     5  C   -0.538951
     6  C   -0.519250
     7  O   -0.250819
     8  H    0.185314
     9  H    0.172072
    10  H    0.159257
    11  H    0.172000
    12  H    0.131476
    13  H    0.135958
    14  H    0.148079
    15  H    0.141341
    16  H    0.148353
    17  H    0.143330
    18  H    0.146856
    19  H    0.145416
 Sum of Mulliken atomic charges =   0.00000

 Dipole moment (field-independent basis, Debye):
    X=             -0.1473    Y=              1.9178    Z=              0.5088  Tot=              1.9896
 Quadrupole moment (field-independent basis, Debye-Ang):
   XX=            -42.7049   YY=            -50.0748   ZZ=            -44.4419
   XY=              1.5103   XZ=              0.9250   YZ=             -0.9661

  Exact polarizability:  82.492  -0.421  73.705   1.093  -1.314  64.211
 Approx polarizability:  87.484  -0.456  85.235   1.493  -0.533  82.900

                     1                      2                      3
                     A                      A                      A
 Frequencies --    81.9644               112.4752               186.0307
 Red. masses --     2.5464                 2.1111                 1.6115
 Frc consts  --     0.0101                 0.0157                 0.0329
 IR Inten    --     2.0981                 0.2808                 1.0676

                     4                      5                      6
                     A                      A                      A
 Frequencies --   223.0358               229.3098               297.3341
 Red. masses --     1.1093                 1.6073                 1.9842
 Frc consts  --     0.0325                 0.0498                 0.1034
 IR Inten    --     0.0784                 2.1166                 0.2915

                     7                      8                      9
                     A                      A                      A
 Frequencies --   339.6956               430.2446               495.6951
 Red. masses --     2.2019                 3.4640                 2.4863
 Frc consts  --     0.1497                 0.3778                 0.3599
 IR Inten    --     0.2151                 4.7777                 1.2347

                    10                     11                     12
                     A                      A                      A
 Frequencies --   708.1056               775.0654               847.0890
 Red. masses --     4.0883                 1.3728                 1.4683
 Frc consts  --     1.2078                 0.4859                 0.6208
 IR Inten    --     3.6286                 0.4309                 5.6424

                    13                     14                     15
                     A                      A                      A
 Frequencies --   903.7025               929.0362               942.4128
 Red. masses --     1.9435                 1.2420                 1.5888
 Frc consts  --     0.9351                 0.6316                 0.8314
 IR Inten    --     8.7156                 1.0814                10.5359

                    16                     17                     18
                     A                      A                      A
 Frequencies --  1018.3833              1035.9400              1073.0055
 Red. masses --     1.2073                 3.5649                 5.4116
 Frc consts  --     0.7377                 2.2540                 3.6709
 IR Inten    --     0.3357                14.6368                70.5047

                    19                     20                     21
                     A                      A                      A
 Frequencies --  1102.8507              1139.3163              1150.5427
 Red. masses --     2.9055                 2.2014                 1.9119
 Frc consts  --     2.0821                 1.6836                 1.4911
 IR Inten    --    53.5836                 2.2030                 2.5719

                    22                     23                     24
                     A                      A                      A
 Frequencies --  1162.7814              1186.2240              1209.4008
 Red. masses --     1.7300                 1.5520                 1.5550
 Frc consts  --     1.3781                 1.2867                 1.3400
 IR Inten    --     4.1458                 1.5118                 1.2382

                    25                     26                     27
                     A                      A                      A
 Frequencies --  1258.2133              1289.4236              1295.0185
 Red. masses --     1.4020                 1.2929                 1.2901
 Frc consts  --     1.3077                 1.2665                 1.2748
 IR Inten    --     0.6950                 2.1499                 0.7433

                    28                     29                     30
                     A                      A                      A
 Frequencies --  1337.2263              1342.2414              1395.8442
 Red. masses --     1.3845                 1.3477                 1.5589
 Frc consts  --     1.4586                 1.4305                 1.7896
 IR Inten    --     0.5245                 4.1665                 3.9761

                    31                     32                     33
                     A                      A                      A
 Frequencies --  1414.2357              1415.1763              1434.1190
 Red. masses --     1.2924                 1.2942                 1.7337
 Frc consts  --     1.5230                 1.5272                 2.1008
 IR Inten    --     2.1826                 6.7241                11.8186

                    34                     35                     36
                     A                      A                      A
 Frequencies --  1494.0221              1499.1914              1501.7056
 Red. masses --     1.0552                 1.0586                 1.0511
 Frc consts  --     1.3878                 1.4019                 1.3966
 IR Inten    --     0.7511                 7.3951                 5.8534

                    37                     38                     39
                     A                      A                      A
 Frequencies --  1506.3429              1512.6385              1539.1189
 Red. masses --     1.0394                 1.0832                 1.1176
 Frc consts  --     1.3896                 1.4603                 1.5598
 IR Inten    --     8.9101                10.1626                 1.6131

                    40                     41                     42
                     A                      A                      A
 Frequencies --  3020.5685              3041.4411              3044.0142
 Red. masses --     1.0827                 1.0374                 1.0406
 Frc consts  --     5.8199                 5.6540                 5.6811
 IR Inten    --    34.0751                14.4686                18.6942

                    43                     44                     45
                     A                      A                      A
 Frequencies --  3046.5710              3051.3203              3069.7503
 Red. masses --     1.0611                 1.0574                 1.0855
 Frc consts  --     5.8026                 5.8005                 6.0267
 IR Inten    --    53.3234                29.5946                13.5249

                    46                     47                     48
                     A                      A                      A
 Frequencies --  3088.6809              3111.9406              3113.4454
 Red. masses --     1.1030                 1.1026                 1.1031
 Frc consts  --     6.1998                 6.2910                 6.3000
 IR Inten    --     3.3056                34.3425                20.5209

                    49                     50                     51
                     A                      A                      A
 Frequencies --  3114.2621              3118.1954              3129.4939
 Red. masses --     1.1024                 1.1029                 1.1007
 Frc consts  --     6.2992                 6.3183                 6.3513
 IR Inten    --     6.4337                58.1741                21.5124

 - Thermochemistry -
 -------------------
 Temperature   298.150 Kelvin.  Pressure   1.00000 Atm.
 Atom     1 has atomic number  6 and mass  12.00000

 Molecular mass:   100.08882 amu.
 Principal axes and moments of inertia in atomic units:
                           1         2         3
     Eigenvalues --   491.41429 825.466431193.03761
           X            0.99968   0.02512  -0.00063
           Y           -0.02513   0.99949  -0.01982
           Z            0.00013   0.01982   0.99980
 This molecule is an asymmetric top.
 Rotational symmetry number  1.
 Warning -- assumption of classical behavior for rotation
           may cause significant error
 Rotational temperatures (Kelvin)      0.17625     0.10493     0.07260
 Rotational constants (GHZ):           3.67255     2.18633     1.51273
 Zero-point vibrational energy     453168.4 (Joules/Mol)
                                  108.30985 (Kcal/Mol)
 Warning -- explicit consideration of   9 degrees of freedom as
           vibrations may cause significant error
 Vibrational temperatures:    117.93   161.83   267.66   320.90   329.93
          (Kelvin)            427.80   488.75   619.03   713.19  1018.80
                             1115.14  1218.77  1300.22  1336.67  1355.92
                             1465.22  1490.48  1543.81  1586.75  1639.22
                             1655.37  1672.98  1706.71  1740.06  1810.29
                             1855.19  1863.24  1923.97  1931.18  2008.31
                             2034.77  2036.12  2063.37  2149.56  2157.00
                             2160.62  2167.29  2176.35  2214.45  4345.92
                             4375.95  4379.65  4383.33  4390.16  4416.68
                             4443.92  4477.38  4479.55  4480.72  4486.38
                             4502.64

 Zero-point correction=                           0.172603 (Hartree/Particle)
 Thermal correction to Energy=                    0.180580
 Thermal correction to Enthalpy=                  0.181524
 Thermal correction to Gibbs Free Energy=         0.140376
 Sum of electronic and zero-point Energies=           -310.839015
 Sum of electronic and thermal Energies=              -310.831038
 Sum of electronic and thermal Enthalpies=            -310.830094
 Sum of electronic and thermal Free Energies=         -310.871242

                     E (Thermal)             CV                S
                      KCal/Mol        Cal/Mol-Kelvin    Cal/Mol-Kelvin
 Total                  113.316             28.729             86.603
 Electronic               0.000              0.000              0.000
 Translational            0.889              2.981             39.721
 Rotational               0.889              2.981             27.672
 Vibrational            111.538             22.768             19.210
 Vibration     1          0.600              1.962              3.843
 Vibration     2          0.607              1.939              3.226
 Vibration     3          0.632              1.859              2.267
 Vibration     4          0.649              1.806              1.934
 Vibration     5          0.652              1.796              1.884
 Vibration     6          0.691              1.679              1.432
 Vibration     7          0.720              1.596              1.214
 Vibration     8          0.791              1.404              0.858
 Vibration     9          0.851              1.260              0.669

 Normal termination of Gaussian 09 at Tue Sep 19 01:46:36 2017.
