 Gaussian 09, Revision B.01,
 Gaussian 09:  EM64L-G09RevB.01 12-Aug-2010

 --------------------------------------------------------------
 # m062x/6-311+g(2df,2p) opt=(verytight,gdiis) freq IOP(2/16=3)
 --------------------------------------------------------------

 ------------------------------------------------------
 InChI=1S/C8H13/c1-4-6-7-8(3)5-2/h4-5H,1-2,6-7H2,3H3/u8
 ------------------------------------------------------
 Symbolic Z-matrix:
 Charge =  0 Multiplicity = 2

 SCF Done:  E(UM062X) =  -312.500645044     A.U. after   16 cycles
 SCF Done:  E(UM062X) =  -312.509466750     A.U. after   13 cycles
 SCF Done:  E(UM062X) =  -312.513486458     A.U. after   14 cycles
 SCF Done:  E(UM062X) =  -312.513994816     A.U. after   12 cycles
 SCF Done:  E(UM062X) =  -312.514116798     A.U. after   13 cycles
 SCF Done:  E(UM062X) =  -312.514155078     A.U. after   12 cycles
 SCF Done:  E(UM062X) =  -312.514182317     A.U. after   10 cycles
 SCF Done:  E(UM062X) =  -312.514371896     A.U. after   14 cycles
 SCF Done:  E(UM062X) =  -312.515934866     A.U. after   16 cycles
 SCF Done:  E(UM062X) =  -312.467322917     A.U. after   18 cycles
 SCF Done:  E(UM062X) =  -312.541168004     A.U. after    8 cycles
 SCF Done:  E(UM062X) =  -312.541168007     A.U. after    8 cycles
 SCF Done:  E(UM062X) =  -312.541168010     A.U. after    7 cycles
 SCF Done:  E(UM062X) =  -312.541168015     A.U. after    6 cycles
 SCF Done:  E(UM062X) =  -312.541168015     A.U. after    5 cycles
 SCF Done:  E(UM062X) =  -312.541168015     A.U. after    2 cycles
 SCF Done:  E(UM062X) =  -312.541168015     A.U. after    2 cycles
 SCF Done:  E(UM062X) =  -312.541168015     A.U. after    2 cycles
 SCF Done:  E(UM062X) =  -312.541168015     A.U. after    2 cycles
 Optimization completed.
    -- Stationary point found.
 Normal termination of Gaussian 09 at Fri Mar 17 21:45:09 2017.

 ----------------------------------------------------------------------
 #N Geom=AllCheck Guess=TCheck SCRF=Check Test GenChk UM062X/6-311+G(2d
 f,2p) Freq
 ----------------------------------------------------------------------

 InChI=1S/C8H13/c1-4-6-7-8(3)5-2/h4-5H,1-2,6-7H2,3H3/u8
 ------------------------------------------------------
 Redundant internal coordinates taken from checkpoint file:
 /gss_gpfs_scratch/westgroup/rwest-autotst-1/Gau-25816.chk
 Charge =  0 Multiplicity = 2

                         Standard orientation:
 ---------------------------------------------------------------------
 Center     Atomic      Atomic             Coordinates (Angstroms)
 Number     Number       Type             X           Y           Z
 ---------------------------------------------------------------------
      1          6           0        0.060734    0.152328    0.689109
      2          6           0        1.057295   -0.163383   -0.446084
      3          6           0       -1.583475    1.949883   -0.058590
      4          6           0       -1.295366    0.500455    0.157640
      5          6           0        2.407930   -0.529989    0.083435
      6          6           0       -2.221655   -0.478863   -0.181935
      7          6           0        3.522302    0.148152   -0.144838
      8          6           0       -2.050180   -1.836143   -0.060393
      9          1           0        0.006061   -0.707762    1.360440
     10          1           0        0.455994    0.985791    1.274380
     11          1           0        0.649595   -0.988378   -1.036428
     12          1           0        1.140353    0.698782   -1.111174
     13          1           0       -1.559268    2.497483    0.888305
     14          1           0       -0.822046    2.408804   -0.697396
     15          1           0       -2.556224    2.106867   -0.521266
     16          1           0        2.446024   -1.413623    0.715656
     17          1           0       -3.166985   -0.130972   -0.587564
     18          1           0        3.521546    1.035292   -0.767383
     19          1           0        4.470043   -0.158915    0.275736
     20          1           0       -1.138874   -2.267431    0.329300
     21          1           0       -2.831723   -2.520585   -0.352670
 ---------------------------------------------------------------------

 SCF Done:  E(UM062X) =  -312.541168015     A.U. after    1 cycles

 The electronic state is 2-A.
 Alpha  occ. eigenvalues --  -10.55181 -10.54061 -10.53938 -10.53789 -10.53352
 Alpha  occ. eigenvalues --  -10.53258 -10.53256 -10.52850  -0.93818  -0.89437
 Alpha  occ. eigenvalues --   -0.83873  -0.81586  -0.73604  -0.70294  -0.63771
 Alpha  occ. eigenvalues --   -0.59895  -0.56149  -0.53775  -0.52659  -0.50150
 Alpha  occ. eigenvalues --   -0.48427  -0.48004  -0.44958  -0.44098  -0.43455
 Alpha  occ. eigenvalues --   -0.41869  -0.40280  -0.38806  -0.36282  -0.32097
 Alpha  occ. eigenvalues --   -0.22483
 Alpha virt. eigenvalues --    0.01294   0.02136   0.02576   0.03146   0.03411
 Alpha virt. eigenvalues --    0.03959   0.04480   0.05392   0.05715   0.06345
 Alpha virt. eigenvalues --    0.07013   0.08040   0.08196   0.08716   0.08998

  Beta  occ. eigenvalues --  -10.54785 -10.54057 -10.53896 -10.53829 -10.53489
  Beta  occ. eigenvalues --  -10.53300 -10.52926 -10.52847  -0.92947  -0.89067
  Beta  occ. eigenvalues --   -0.83137  -0.81249  -0.73081  -0.69173  -0.63701
  Beta  occ. eigenvalues --   -0.59283  -0.55797  -0.53433  -0.51970  -0.49306
  Beta  occ. eigenvalues --   -0.47836  -0.47668  -0.44601  -0.43737  -0.42853
  Beta  occ. eigenvalues --   -0.41710  -0.40040  -0.38514  -0.33284  -0.31921
  Beta virt. eigenvalues --   -0.04104   0.01181   0.02153   0.02538   0.03243
  Beta virt. eigenvalues --    0.03380   0.03981   0.04499   0.05693   0.05809
  Beta virt. eigenvalues --    0.06316   0.06908   0.07840   0.08612   0.08896

 Mulliken atomic charges:
              1
     1  C   -0.634025
     2  C   -0.448211
     3  C   -0.637147
     4  C    0.602309
     5  C    0.172164
     6  C   -0.284721
     7  C   -0.467978
     8  C   -0.369121
     9  H    0.206998
    10  H    0.184279
    11  H    0.191701
    12  H    0.153176
    13  H    0.163515
    14  H    0.142281
    15  H    0.141566
    16  H    0.150386
    17  H    0.154789
    18  H    0.126672
    19  H    0.136887
    20  H    0.158712
    21  H    0.155768
 Sum of Mulliken atomic charges =   0.00000

 Dipole moment (field-independent basis, Debye):
    X=              0.0242    Y=              0.5918    Z=              0.0151  Tot=              0.5925
 Quadrupole moment (field-independent basis, Debye-Ang):
   XX=            -51.9276   YY=            -49.8760   ZZ=            -54.1567
   XY=             -0.7273   XZ=              1.7187   YZ=             -1.4292

  Exact polarizability: 119.913  12.796 111.944   1.973  -0.760  74.481
 Approx polarizability: 123.048  14.563 131.667   1.720  -1.130  96.391

                     1                      2                      3
                     A                      A                      A
 Frequencies --    56.7398                81.5409               104.8424
 Red. masses --     3.2305                 2.2575                 2.7432
 Frc consts  --     0.0061                 0.0088                 0.0178
 IR Inten    --     0.2120                 0.1019                 0.1242

                     4                      5                      6
                     A                      A                      A
 Frequencies --   154.4011               162.7849               236.5044
 Red. masses --     2.0858                 1.2656                 1.7981
 Frc consts  --     0.0293                 0.0198                 0.0593
 IR Inten    --     0.7322                 0.0933                 0.2678

                     7                      8                      9
                     A                      A                      A
 Frequencies --   271.3629               330.4411               393.7893
 Red. masses --     2.3417                 2.2530                 2.0492
 Frc consts  --     0.1016                 0.1449                 0.1872
 IR Inten    --     0.3086                 0.3624                 0.4026

                    10                     11                     12
                     A                      A                      A
 Frequencies --   413.3790               476.9902               541.9393
 Red. masses --     2.1930                 1.7526                 2.5557
 Frc consts  --     0.2208                 0.2349                 0.4422
 IR Inten    --     1.7080                 6.5778                 0.7176

                    13                     14                     15
                     A                      A                      A
 Frequencies --   604.6512               652.4695               781.6471
 Red. masses --     1.8754                 1.4990                 1.2084
 Frc consts  --     0.4040                 0.3760                 0.4350
 IR Inten    --     1.8705                11.4793                 2.4414

                    16                     17                     18
                     A                      A                      A
 Frequencies --   807.2626               819.1460               944.6317
 Red. masses --     2.5100                 1.4087                 1.6106
 Frc consts  --     0.9637                 0.5569                 0.8468
 IR Inten    --     3.5222                43.8770                 1.5665

                    19                     20                     21
                     A                      A                      A
 Frequencies --   969.8457               974.6727               987.5303
 Red. masses --     1.2846                 1.2994                 1.6800
 Frc consts  --     0.7119                 0.7273                 0.9653
 IR Inten    --    31.1289                12.4328                 7.5065

                    22                     23                     24
                     A                      A                      A
 Frequencies --  1000.6431              1027.0248              1039.8023
 Red. masses --     1.4989                 2.2093                 1.6583
 Frc consts  --     0.8843                 1.3730                 1.0563
 IR Inten    --     9.3043                 3.2291                 2.4877

                    25                     26                     27
                     A                      A                      A
 Frequencies --  1045.9118              1064.1870              1105.2416
 Red. masses --     1.1497                 1.4652                 1.5049
 Frc consts  --     0.7410                 0.9776                 1.0831
 IR Inten    --     7.1011                 5.4363                 2.8631

                    28                     29                     30
                     A                      A                      A
 Frequencies --  1213.5618              1214.7070              1259.6344
 Red. masses --     1.8925                 2.4987                 1.3771
 Frc consts  --     1.6421                 2.1722                 1.2874
 IR Inten    --     2.1227                 1.1969                 1.0841

                    31                     32                     33
                     A                      A                      A
 Frequencies --  1275.6536              1311.4451              1331.5440
 Red. masses --     1.5079                 1.2894                 1.2685
 Frc consts  --     1.4457                 1.3065                 1.3251
 IR Inten    --     1.6618                 0.3940                 0.7044

                    34                     35                     36
                     A                      A                      A
 Frequencies --  1346.8724              1385.0804              1417.0238
 Red. masses --     1.4012                 1.9414                 1.3439
 Frc consts  --     1.4976                 2.1944                 1.5899
 IR Inten    --     0.3437                 5.4581                 5.5319

                    37                     38                     39
                     A                      A                      A
 Frequencies --  1457.3889              1459.1069              1481.0638
 Red. masses --     1.5222                 1.2156                 1.0520
 Frc consts  --     1.9048                 1.5248                 1.3596
 IR Inten    --    14.1560                 8.2942                 5.4836

                    40                     41                     42
                     A                      A                      A
 Frequencies --  1488.7306              1499.0482              1512.1153
 Red. masses --     1.1725                 1.2130                 1.1747
 Frc consts  --     1.5310                 1.6060                 1.5824
 IR Inten    --     4.9481                10.1827                 4.5581

                    43                     44                     45
                     A                      A                      A
 Frequencies --  1536.8891              1733.0735              3017.7172
 Red. masses --     1.4093                 4.7839                 1.0403
 Frc consts  --     1.9613                 8.4658                 5.5817
 IR Inten    --     4.8228                18.0383                22.0559

                    46                     47                     48
                     A                      A                      A
 Frequencies --  3033.5604              3045.8091              3060.0223
 Red. masses --     1.0594                 1.0600                 1.0981
 Frc consts  --     5.7440                 5.7940                 6.0581
 IR Inten    --     0.9444                28.1565                12.8668

                    49                     50                     51
                     A                      A                      A
 Frequencies --  3075.1415              3095.8509              3138.6494
 Red. masses --     1.1013                 1.1046                 1.0972
 Frc consts  --     6.1358                 6.2375                 6.3684
 IR Inten    --     0.2066                18.6380                13.5250

                    52                     53                     54
                     A                      A                      A
 Frequencies --  3145.2756              3156.0643              3158.7115
 Red. masses --     1.0650                 1.0851                 1.0842
 Frc consts  --     6.2077                 6.3683                 6.3735
 IR Inten    --    10.2444                 4.9690                17.4577

                    55                     56                     57
                     A                      A                      A
 Frequencies --  3167.8843              3233.5333              3257.4069
 Red. masses --     1.0583                 1.1167                 1.1168
 Frc consts  --     6.2572                 6.8793                 6.9818
 IR Inten    --     3.3178                 9.4120                 8.1134

 - Thermochemistry -
 -------------------
 Temperature   298.150 Kelvin.  Pressure   1.00000 Atm.
 Atom     1 has atomic number  6 and mass  12.00000

 Molecular mass:   109.10173 amu.
 Principal axes and moments of inertia in atomic units:
                           1         2         3
     Eigenvalues --   530.971321713.993622114.07688
           X            0.99999  -0.00303   0.00436
           Y            0.00309   0.99989  -0.01467
           Z           -0.00432   0.01469   0.99988
 This molecule is an asymmetric top.
 Rotational symmetry number  1.
 Warning -- assumption of classical behavior for rotation
           may cause significant error
 Rotational temperatures (Kelvin)      0.16312     0.05053     0.04097
 Rotational constants (GHZ):           3.39894     1.05295     0.85368
 Zero-point vibrational energy     487824.9 (Joules/Mol)
                                  116.59294 (Kcal/Mol)
 Warning -- explicit consideration of  13 degrees of freedom as
           vibrations may cause significant error
 Vibrational temperatures:     81.64   117.32   150.84   222.15   234.21
          (Kelvin)            340.28   390.43   475.43   566.57   594.76
                              686.28   779.73   869.96   938.76  1124.61
                             1161.47  1178.57  1359.11  1395.39  1402.33
                             1420.83  1439.70  1477.66  1496.04  1504.83
                             1531.13  1590.19  1746.04  1747.69  1812.33
                             1835.38  1886.87  1915.79  1937.85  1992.82
                             2038.78  2096.85  2099.33  2130.92  2141.95
                             2156.79  2175.59  2211.24  2493.50  4341.82
                             4364.61  4382.23  4402.68  4424.44  4454.23
                             4515.81  4525.34  4540.87  4544.68  4557.87
                             4652.33  4686.68

 Zero-point correction=                           0.185803 (Hartree/Particle)
 Thermal correction to Energy=                    0.195619
 Thermal correction to Enthalpy=                  0.196564
 Thermal correction to Gibbs Free Energy=         0.150082
 Sum of electronic and zero-point Energies=           -312.355365
 Sum of electronic and thermal Energies=              -312.345549
 Sum of electronic and thermal Enthalpies=            -312.344604
 Sum of electronic and thermal Free Energies=         -312.391086

                     E (Thermal)             CV                S
                      KCal/Mol        Cal/Mol-Kelvin    Cal/Mol-Kelvin
 Total                  122.753             35.564             97.829
 Electronic               0.000              0.000              1.377
 Translational            0.889              2.981             39.978
 Rotational               0.889              2.981             29.044
 Vibrational            120.976             29.602             27.430
 Vibration     1          0.596              1.975              4.567
 Vibration     2          0.600              1.962              3.853
 Vibration     3          0.605              1.945              3.362
 Vibration     4          0.620              1.898              2.617
 Vibration     5          0.623              1.888              2.517
 Vibration     6          0.655              1.785              1.829
 Vibration     7          0.675              1.726              1.588
 Vibration     8          0.713              1.615              1.258
 Vibration     9          0.761              1.483              0.986
 Vibration    10          0.777              1.441              0.915
 Vibration    11          0.834              1.301              0.718
 Vibration    12          0.897              1.157              0.561
 Vibration    13          0.963              1.022              0.442

 Normal termination of Gaussian 09 at Fri Mar 17 22:57:43 2017.
