 Gaussian 09, Revision B.01,
 Gaussian 09:  EM64L-G09RevB.01 12-Aug-2010

 --------------------------------------------------------------
 # m062x/6-311+g(2df,2p) opt=(verytight,gdiis) freq IOP(2/16=3)
 --------------------------------------------------------------

 ------------------------------------------------------------------
 InChI=1S/C10H19O/c1-3-4-5-6-10-8-7-9(2)11-10/h8-10H,3-7H2,1-2H3/u8
 ------------------------------------------------------------------
 Symbolic Z-matrix:
 Charge =  0 Multiplicity = 2

 SCF Done:  E(UM062X) =  -467.577690132     A.U. after   16 cycles
 SCF Done:  E(UM062X) =  -467.590388902     A.U. after   13 cycles
 SCF Done:  E(UM062X) =  -467.596723662     A.U. after   13 cycles
 SCF Done:  E(UM062X) =  -467.598980562     A.U. after   13 cycles
 SCF Done:  E(UM062X) =  -467.600876063     A.U. after   13 cycles
 SCF Done:  E(UM062X) =  -467.602573932     A.U. after   13 cycles
 SCF Done:  E(UM062X) =  -467.603103723     A.U. after   13 cycles
 SCF Done:  E(UM062X) =  -467.603249700     A.U. after   13 cycles
 SCF Done:  E(UM062X) =  -467.603272658     A.U. after   11 cycles
 SCF Done:  E(UM062X) =  -467.603281669     A.U. after   11 cycles
 SCF Done:  E(UM062X) =  -467.603283551     A.U. after    9 cycles
 SCF Done:  E(UM062X) =  -467.603284297     A.U. after   10 cycles
 SCF Done:  E(UM062X) =  -467.603285241     A.U. after   11 cycles
 SCF Done:  E(UM062X) =  -467.603285260     A.U. after    8 cycles
 SCF Done:  E(UM062X) =  -467.603285257     A.U. after    7 cycles
 SCF Done:  E(UM062X) =  -467.603285259     A.U. after    6 cycles
 SCF Done:  E(UM062X) =  -467.603285259     A.U. after    2 cycles
 SCF Done:  E(UM062X) =  -467.603285259     A.U. after    3 cycles
 SCF Done:  E(UM062X) =  -467.603285259     A.U. after    2 cycles
 Optimization completed.
    -- Stationary point found.
 Normal termination of Gaussian 09 at Tue Jul 25 07:30:30 2017.

 ----------------------------------------------------------------------
 #N Geom=AllCheck Guess=TCheck SCRF=Check Test GenChk UM062X/6-311+G(2d
 f,2p) Freq
 ----------------------------------------------------------------------

 InChI=1S/C10H19O/c1-3-4-5-6-10-8-7-9(2)11-10/h8-10H,3-7H2,1-2H3/u8
 ------------------------------------------------------------------
 Redundant internal coordinates taken from checkpoint file:
 /gss_gpfs_scratch/harms.n/bioTST/Gau-2562.chk
 Charge =  0 Multiplicity = 2

                         Standard orientation:
 ---------------------------------------------------------------------
 Center     Atomic      Atomic             Coordinates (Angstroms)
 Number     Number       Type             X           Y           Z
 ---------------------------------------------------------------------
      1          6           0        2.904646    0.592133   -0.304303
      2          6           0        1.058593   -0.772876   -0.477688
      3          6           0       -0.294873   -0.978031    0.185003
      4          6           0       -1.381845   -0.085980   -0.401354
      5          6           0       -2.736927   -0.291284    0.264298
      6          6           0       -3.829937    0.600164   -0.313704
      7          6           0        3.322876   -0.706250    0.402702
      8          6           0        3.390743    1.867747    0.339911
      9          6           0       -5.179672    0.386887    0.361127
     10          6           0        2.174118   -1.595448    0.081169
     11          8           0        1.484677    0.570624   -0.279287
     12          1           0        3.240042    0.546038   -1.349696
     13          1           0        0.947510   -0.953485   -1.561864
     14          1           0       -0.182117   -0.783247    1.254922
     15          1           0       -0.573836   -2.029987    0.074981
     16          1           0       -1.470881   -0.283314   -1.474595
     17          1           0       -1.075511    0.957670   -0.302355
     18          1           0       -2.645545   -0.098545    1.338070
     19          1           0       -3.037586   -1.339855    0.167046
     20          1           0       -3.527772    1.645852   -0.213682
     21          1           0       -3.919378    0.408545   -1.386325
     22          1           0        3.416905   -0.530874    1.482650
     23          1           0        4.286035   -1.081818    0.051598
     24          1           0        3.032594    1.921934    1.368046
     25          1           0        3.022739    2.737326   -0.202240
     26          1           0        4.480336    1.897493    0.345459
     27          1           0       -5.114369    0.591811    1.430692
     28          1           0       -5.514332   -0.644743    0.242692
     29          1           0       -5.946526    1.037698   -0.057797
     30          1           0        2.137948   -2.665875    0.203724
 ---------------------------------------------------------------------

 SCF Done:  E(UM062X) =  -467.603285259     A.U. after    1 cycles

 The electronic state is 2-A.
 Alpha  occ. eigenvalues --  -19.61759 -10.58490 -10.58347 -10.54109 -10.53677
 Alpha  occ. eigenvalues --  -10.52661 -10.52274 -10.52261 -10.52144 -10.52005
 Alpha  occ. eigenvalues --  -10.51637  -1.16362  -0.91036  -0.88857  -0.88066
 Alpha  occ. eigenvalues --   -0.83826  -0.78797  -0.73615  -0.68005  -0.66920
 Alpha  occ. eigenvalues --   -0.65531  -0.65067  -0.58044  -0.55968  -0.54292
 Alpha  occ. eigenvalues --   -0.52968  -0.49449  -0.49080  -0.48376  -0.47573
 Alpha  occ. eigenvalues --   -0.46709  -0.44556  -0.43766  -0.43193  -0.42811
 Alpha  occ. eigenvalues --   -0.41471  -0.40167  -0.39619  -0.38565  -0.38253
 Alpha  occ. eigenvalues --   -0.37543  -0.36461  -0.32769  -0.24447
 Alpha virt. eigenvalues --    0.01674   0.02318   0.02596   0.02890   0.03659
 Alpha virt. eigenvalues --    0.03993   0.04430   0.05101   0.05552   0.06038
 Alpha virt. eigenvalues --    0.06342   0.07005   0.07354   0.07883   0.08167

  Beta  occ. eigenvalues --  -19.61762 -10.58484 -10.58415 -10.53746 -10.53424
  Beta  occ. eigenvalues --  -10.52605 -10.52273 -10.52261 -10.52144 -10.52001
  Beta  occ. eigenvalues --  -10.51637  -1.16283  -0.90919  -0.88315  -0.87088
  Beta  occ. eigenvalues --   -0.83339  -0.78680  -0.73180  -0.67603  -0.66416
  Beta  occ. eigenvalues --   -0.65371  -0.63788  -0.57351  -0.55720  -0.54032
  Beta  occ. eigenvalues --   -0.52542  -0.49308  -0.48975  -0.48045  -0.46975
  Beta  occ. eigenvalues --   -0.46072  -0.44458  -0.43430  -0.42830  -0.42486
  Beta  occ. eigenvalues --   -0.41256  -0.39917  -0.39481  -0.38456  -0.38227
  Beta  occ. eigenvalues --   -0.37514  -0.36033  -0.32526
  Beta virt. eigenvalues --   -0.01220   0.01435   0.02302   0.02511   0.02693
  Beta virt. eigenvalues --    0.03642   0.03991   0.04345   0.05153   0.05446
  Beta virt. eigenvalues --    0.05858   0.06309   0.06860   0.07348   0.07775

 Mulliken atomic charges:
              1
     1  C    0.032718
     2  C    0.019946
     3  C   -0.440905
     4  C   -0.208177
     5  C   -0.375581
     6  C   -0.230794
     7  C   -0.471673
     8  C   -0.550825
     9  C   -0.593085
    10  C   -0.211978
    11  O   -0.102850
    12  H    0.169410
    13  H    0.175443
    14  H    0.197890
    15  H    0.181887
    16  H    0.166377
    17  H    0.196515
    18  H    0.170506
    19  H    0.165959
    20  H    0.158687
    21  H    0.155663
    22  H    0.171373
    23  H    0.163556
    24  H    0.157680
    25  H    0.152556
    26  H    0.143818
    27  H    0.137074
    28  H    0.137083
    29  H    0.142172
    30  H    0.189553
 Sum of Mulliken atomic charges =   0.00000

 Dipole moment (field-independent basis, Debye):
    X=              0.9693    Y=             -0.8312    Z=             -0.0603  Tot=              1.2783
 Quadrupole moment (field-independent basis, Debye-Ang):
   XX=            -67.1076   YY=            -70.8457   ZZ=            -71.6741
   XY=             -0.1531   XZ=              0.4758   YZ=              0.7399

  Exact polarizability: 148.634   1.176 114.971   1.072  -0.793 103.764
 Approx polarizability: 142.417   1.395 138.863   1.122   0.098 136.385

                     1                      2                      3
                     A                      A                      A
 Frequencies --    35.8458                37.4920                64.3716
 Red. masses --     3.1037                 1.6335                 2.9607
 Frc consts  --     0.0023                 0.0014                 0.0072
 IR Inten    --     0.5039                 0.0213                 2.0458

                     4                      5                      6
                     A                      A                      A
 Frequencies --    93.4169               131.2174               140.6869
 Red. masses --     3.2398                 1.7488                 2.7210
 Frc consts  --     0.0167                 0.0177                 0.0317
 IR Inten    --     1.0126                 0.0578                 1.5624

                     7                      8                      9
                     A                      A                      A
 Frequencies --   150.1103               209.1824               221.8603
 Red. masses --     2.4817                 1.6115                 1.2694
 Frc consts  --     0.0329                 0.0415                 0.0368
 IR Inten    --     0.1483                 0.6901                 1.7781

                    10                     11                     12
                     A                      A                      A
 Frequencies --   235.3356               251.0906               289.5150
 Red. masses --     1.1465                 1.6980                 2.4746
 Frc consts  --     0.0374                 0.0631                 0.1222
 IR Inten    --     0.0506                10.9757                12.4917

                    13                     14                     15
                     A                      A                      A
 Frequencies --   318.1028               381.9364               469.9665
 Red. masses --     2.5897                 2.6522                 2.4464
 Frc consts  --     0.1544                 0.2280                 0.3184
 IR Inten    --     1.4007                 0.7495                 2.5460

                    16                     17                     18
                     A                      A                      A
 Frequencies --   479.4713               509.5966               608.8670
 Red. masses --     2.7352                 2.7455                 3.4689
 Frc consts  --     0.3705                 0.4201                 0.7577
 IR Inten    --     1.1993                 4.9618                 2.7364

                    19                     20                     21
                     A                      A                      A
 Frequencies --   715.5854               727.2130               755.5291
 Red. masses --     3.2194                 1.0962                 1.2477
 Frc consts  --     0.9713                 0.3416                 0.4196
 IR Inten    --     0.9057                 3.6927                 0.9452

                    22                     23                     24
                     A                      A                      A
 Frequencies --   829.6880               866.0407               902.8855
 Red. masses --     1.5135                 2.0639                 1.8791
 Frc consts  --     0.6139                 0.9121                 0.9025
 IR Inten    --     2.0771                 0.9358                 5.2258

                    25                     26                     27
                     A                      A                      A
 Frequencies --   906.6399               912.7694               960.3923
 Red. masses --     1.5533                 1.7446                 2.1821
 Frc consts  --     0.7523                 0.8564                 1.1858
 IR Inten    --     3.3834                 9.8976                15.0096

                    28                     29                     30
                     A                      A                      A
 Frequencies --   972.9259              1003.8723              1027.2655
 Red. masses --     1.6093                 1.5070                 2.3667
 Frc consts  --     0.8975                 0.8948                 1.4715
 IR Inten    --     0.5570                 7.5545                 1.2299

                    31                     32                     33
                     A                      A                      A
 Frequencies --  1048.1721              1055.7544              1069.7631
 Red. masses --     1.6966                 1.4317                 2.4086
 Frc consts  --     1.0982                 0.9402                 1.6240
 IR Inten    --     2.3491                 3.0499                 1.0381

                    34                     35                     36
                     A                      A                      A
 Frequencies --  1089.9052              1114.9601              1140.2400
 Red. masses --     2.1226                 2.5829                 2.4057
 Frc consts  --     1.4855                 1.8918                 1.8428
 IR Inten    --     0.8744                 9.7051                19.9979

                    37                     38                     39
                     A                      A                      A
 Frequencies --  1145.1868              1172.0120              1191.6591
 Red. masses --     1.8861                 4.2643                 1.9569
 Frc consts  --     1.4573                 3.4512                 1.6373
 IR Inten    --     6.9194               112.2378                15.0799

                    40                     41                     42
                     A                      A                      A
 Frequencies --  1209.6351              1229.8811              1244.5483
 Red. masses --     1.6464                 1.5370                 1.2879
 Frc consts  --     1.4194                 1.3698                 1.1753
 IR Inten    --    11.8136                 3.2721                 1.9234

                    43                     44                     45
                     A                      A                      A
 Frequencies --  1281.7366              1291.5696              1301.3085
 Red. masses --     1.5755                 1.2933                 1.3512
 Frc consts  --     1.5250                 1.2711                 1.3481
 IR Inten    --     6.7642                 0.8986                 0.8896

                    46                     47                     48
                     A                      A                      A
 Frequencies --  1326.0835              1327.8212              1330.7896
 Red. masses --     1.1941                 1.2343                 1.1608
 Frc consts  --     1.2372                 1.2822                 1.2112
 IR Inten    --     0.3337                 1.5706                 0.6006

                    49                     50                     51
                     A                      A                      A
 Frequencies --  1343.2413              1360.3807              1385.6020
 Red. masses --     1.3272                 1.4784                 1.4299
 Frc consts  --     1.4109                 1.6120                 1.6175
 IR Inten    --    10.0707                12.9527                 7.6960

                    52                     53                     54
                     A                      A                      A
 Frequencies --  1392.7292              1403.1733              1407.7490
 Red. masses --     1.4747                 1.4652                 1.7471
 Frc consts  --     1.6853                 1.6997                 2.0400
 IR Inten    --     1.3183                 3.4671                 2.2313

                    55                     56                     57
                     A                      A                      A
 Frequencies --  1414.3142              1430.6576              1475.1986
 Red. masses --     1.2989                 1.6936                 1.1041
 Frc consts  --     1.5307                 2.0423                 1.4157
 IR Inten    --     1.8454                20.7162                 2.8612

                    58                     59                     60
                     A                      A                      A
 Frequencies --  1477.1613              1488.4296              1489.3277
 Red. masses --     1.0916                 1.0500                 1.0747
 Frc consts  --     1.4034                 1.3706                 1.4045
 IR Inten    --     3.0372                 5.2809                 0.3105

                    61                     62                     63
                     A                      A                      A
 Frequencies --  1494.9285              1501.1640              1503.2080
 Red. masses --     1.0687                 1.0524                 1.0404
 Frc consts  --     1.4071                 1.3973                 1.3851
 IR Inten    --     0.6966                 3.3807                 7.3914

                    64                     65                     66
                     A                      A                      A
 Frequencies --  1507.0458              1516.5450              2944.9379
 Red. masses --     1.0794                 1.0906                 1.0788
 Frc consts  --     1.4443                 1.4779                 5.5124
 IR Inten    --     1.4394                10.2743                46.3550

                    67                     68                     69
                     A                      A                      A
 Frequencies --  2991.5950              3010.3879              3015.7776
 Red. masses --     1.0728                 1.0813                 1.0591
 Frc consts  --     5.6569                 5.7735                 5.6753
 IR Inten    --    15.6676                52.5362                 7.0538

                    70                     71                     72
                     A                      A                      A
 Frequencies --  3026.9134              3034.2101              3036.6310
 Red. masses --     1.0626                 1.0602                 1.0642
 Frc consts  --     5.7360                 5.7511                 5.7818
 IR Inten    --     3.2311                 0.3932                52.3326

                    73                     74                     75
                     A                      A                      A
 Frequencies --  3042.2369              3048.1947              3051.2789
 Red. masses --     1.0378                 1.0954                 1.0347
 Frc consts  --     5.6593                 5.9966                 5.6760
 IR Inten    --    39.6699                11.2075                13.7599

                    76                     77                     78
                     A                      A                      A
 Frequencies --  3068.6700              3076.1175              3088.5957
 Red. masses --     1.0990                 1.1036                 1.0895
 Frc consts  --     6.0977                 6.1528                 6.1237
 IR Inten    --    10.8060                 2.4910                20.1462

                    79                     80                     81
                     A                      A                      A
 Frequencies --  3093.2816              3109.9675              3119.1064
 Red. masses --     1.1042                 1.1028                 1.1016
 Frc consts  --     6.2251                 6.2842                 6.3142
 IR Inten    --    42.8298                44.7445                28.6487

                    82                     83                     84
                     A                      A                      A
 Frequencies --  3128.5609              3132.1864              3242.5670
 Red. masses --     1.1024                 1.1029                 1.0914
 Frc consts  --     6.3576                 6.3750                 6.7612
 IR Inten    --    18.6049                14.5406                 5.4886

 - Thermochemistry -
 -------------------
 Temperature   298.150 Kelvin.  Pressure   1.00000 Atm.
 Atom     1 has atomic number  6 and mass  12.00000

 Molecular mass:   155.14359 amu.
 Principal axes and moments of inertia in atomic units:
                           1         2         3
     Eigenvalues --   655.646504810.799005231.89034
           X            1.00000   0.00275   0.00073
           Y           -0.00275   0.99999   0.00388
           Z           -0.00072  -0.00388   0.99999
 This molecule is an asymmetric top.
 Rotational symmetry number  1.
 Warning -- assumption of classical behavior for rotation
           may cause significant error
 Rotational temperatures (Kelvin)      0.13210     0.01800     0.01655
 Rotational constants (GHZ):           2.75261     0.37514     0.34495
 Zero-point vibrational energy     715558.1 (Joules/Mol)
                                  171.02249 (Kcal/Mol)
 Warning -- explicit consideration of  18 degrees of freedom as
           vibrations may cause significant error
 Vibrational temperatures:     51.57    53.94    92.62   134.41   188.79
          (Kelvin)            202.42   215.97   300.97   319.21   338.60
                              361.26   416.55   457.68   549.52   676.18
                              689.85   733.19   876.02  1029.57  1046.30
                             1087.04  1193.73  1246.04  1299.05  1304.45
                             1313.27  1381.79  1399.82  1444.35  1478.00
                             1508.08  1518.99  1539.15  1568.13  1604.18
                             1640.55  1647.67  1686.26  1714.53  1740.39
                             1769.52  1790.63  1844.13  1858.28  1872.29
                             1907.94  1910.44  1914.71  1932.62  1957.28
                             1993.57  2003.82  2018.85  2025.43  2034.88
                             2058.39  2122.48  2125.30  2141.52  2142.81
                             2150.87  2159.84  2162.78  2168.30  2181.97
                             4237.10  4304.23  4331.27  4339.03  4355.05
                             4365.55  4369.03  4377.09  4385.67  4390.10
                             4415.13  4425.84  4443.79  4450.54  4474.54
                             4487.69  4501.30  4506.51  4665.32

 Zero-point correction=                           0.272542 (Hartree/Particle)
 Thermal correction to Energy=                    0.285893
 Thermal correction to Enthalpy=                  0.286837
 Thermal correction to Gibbs Free Energy=         0.230930
 Sum of electronic and zero-point Energies=           -467.330744
 Sum of electronic and thermal Energies=              -467.317393
 Sum of electronic and thermal Enthalpies=            -467.316449
 Sum of electronic and thermal Free Energies=         -467.372355

                     E (Thermal)             CV                S
                      KCal/Mol        Cal/Mol-Kelvin    Cal/Mol-Kelvin
 Total                  179.400             48.365            117.666
 Electronic               0.000              0.000              1.377
 Translational            0.889              2.981             41.027
 Rotational               0.889              2.981             31.179
 Vibrational            177.623             42.403             44.082
 Vibration     1          0.594              1.982              5.476
 Vibration     2          0.594              1.982              5.387
 Vibration     3          0.597              1.971              4.318
 Vibration     4          0.602              1.954              3.587
 Vibration     5          0.612              1.922              2.928
 Vibration     6          0.615              1.913              2.795
 Vibration     7          0.618              1.903              2.671
 Vibration     8          0.642              1.827              2.051
 Vibration     9          0.648              1.808              1.944
 Vibration    10          0.655              1.787              1.838
 Vibration    11          0.663              1.761              1.723
 Vibration    12          0.686              1.693              1.477
 Vibration    13          0.705              1.639              1.320
 Vibration    14          0.751              1.509              1.031
 Vibration    15          0.827              1.317              0.738
 Vibration    16          0.836              1.296              0.711
 Vibration    17          0.865              1.229              0.635
 Vibration    18          0.968              1.013              0.435

 Normal termination of Gaussian 09 at Tue Jul 25 11:20:40 2017.
