 Gaussian 09, Revision B.01,
 Gaussian 09:  EM64L-G09RevB.01 12-Aug-2010

 ----------------------------------------------------------------------
 # m062x/6-311+g(2df,2p) opt=(verytight,gdiis) freq IOP(2/16=3) IOP(4/2
 1=2)
 ----------------------------------------------------------------------

 ---------------------------------------------
 InChI=1S/C5H11O2/c1-5(2,3)4-7-6/h4H2,1-3H3/u6
 ---------------------------------------------
 Symbolic Z-matrix:
 Charge =  0 Multiplicity = 2

 SCF Done:  E(UM062X) =  -347.426654192     A.U. after   15 cycles
 SCF Done:  E(UM062X) =  -347.433064839     A.U. after   16 cycles
 SCF Done:  E(UM062X) =  -347.433723723     A.U. after   16 cycles
 SCF Done:  E(UM062X) =  -347.433795714     A.U. after   11 cycles
 SCF Done:  E(UM062X) =  -347.433803487     A.U. after   10 cycles
 SCF Done:  E(UM062X) =  -347.433804093     A.U. after   16 cycles
 SCF Done:  E(UM062X) =  -347.433804091     A.U. after   16 cycles
 SCF Done:  E(UM062X) =  -347.433804096     A.U. after   16 cycles
 SCF Done:  E(UM062X) =  -347.433804098     A.U. after   16 cycles
 SCF Done:  E(UM062X) =  -347.433804098     A.U. after    3 cycles
 SCF Done:  E(UM062X) =  -347.433804083     A.U. after   11 cycles
 SCF Done:  E(UM062X) =  -347.433804097     A.U. after   16 cycles
 SCF Done:  E(UM062X) =  -347.433804098     A.U. after   10 cycles
 SCF Done:  E(UM062X) =  -347.433804098     A.U. after    5 cycles
 SCF Done:  E(UM062X) =  -347.433804098     A.U. after   17 cycles
 SCF Done:  E(UM062X) =  -347.433804099     A.U. after   10 cycles
 SCF Done:  E(UM062X) =  -347.433804099     A.U. after    4 cycles
 SCF Done:  E(UM062X) =  -347.433804098     A.U. after   16 cycles
 SCF Done:  E(UM062X) =  -347.433804098     A.U. after   16 cycles
 Optimization completed.
    -- Stationary point found.
 Normal termination of Gaussian 09 at Sun Oct  1 00:09:58 2017.

 ----------------------------------------------------------------------
 #N Geom=AllCheck Guess=TCheck SCRF=Check Test GenChk UM062X/6-311+G(2d
 f,2p) Freq
 ----------------------------------------------------------------------

 InChI=1S/C5H11O2/c1-5(2,3)4-7-6/h4H2,1-3H3/u6
 ---------------------------------------------
 Redundant internal coordinates taken from checkpoint file:
 /gss_gpfs_scratch/harms.n/comparerTST/Gau-45494.chk
 Charge =  0 Multiplicity = 2

                         Standard orientation:
 ---------------------------------------------------------------------
 Center     Atomic      Atomic             Coordinates (Angstroms)
 Number     Number       Type             X           Y           Z
 ---------------------------------------------------------------------
      1          6           0        0.799357    0.007572    0.000001
      2          6           0       -0.559965    0.690205   -0.000013
      3          6           0        0.950059   -0.854397    1.254763
      4          6           0        0.950063   -0.854435   -1.254734
      5          6           0        1.857463    1.111705   -0.000015
      6          8           0       -1.590256   -0.319693   -0.000006
      7          1           0       -0.708516    1.302301   -0.891393
      8          1           0       -0.708526    1.302323    0.891350
      9          1           0        0.198572   -1.642774    1.285455
     10          1           0        0.848118   -0.249627    2.157760
     11          1           0        1.935268   -1.321921    1.271453
     12          1           0        0.848119   -0.249696   -2.157750
     13          1           0        0.198581   -1.642818   -1.285399
     14          1           0        1.935276   -1.321955   -1.271409
     15          1           0        1.770583    1.744782   -0.884759
     16          1           0        1.770567    1.744825    0.884696
     17          1           0        2.854883    0.670789    0.000005
     18          8           0       -2.775343    0.202178    0.000004
 ---------------------------------------------------------------------

 SCF Done:  E(UM062X) =  -347.433804098     A.U. after    1 cycles

 The electronic state is 2-A.
 Alpha  occ. eigenvalues --  -19.74479 -19.69156 -10.60024 -10.56449 -10.53785
 Alpha  occ. eigenvalues --  -10.53145 -10.53144  -1.34062  -1.00983  -0.92545
 Alpha  occ. eigenvalues --   -0.79536  -0.79087  -0.77720  -0.64563  -0.62139
 Alpha  occ. eigenvalues --   -0.60423  -0.57578  -0.53445  -0.51515  -0.50878
 Alpha  occ. eigenvalues --   -0.48348  -0.46396  -0.44786  -0.44032  -0.40995
 Alpha  occ. eigenvalues --   -0.40081  -0.39827  -0.36128  -0.35802
 Alpha virt. eigenvalues --    0.00903   0.02655   0.02846   0.03294   0.05426
 Alpha virt. eigenvalues --    0.05748   0.06146   0.06686   0.06817   0.07411
 Alpha virt. eigenvalues --    0.09600   0.10141   0.10183   0.10275   0.11065

  Beta  occ. eigenvalues --  -19.73630 -19.67770 -10.60052 -10.56450 -10.53786
  Beta  occ. eigenvalues --  -10.53145 -10.53144  -1.30818  -0.98306  -0.91132
  Beta  occ. eigenvalues --   -0.79480  -0.79067  -0.76589  -0.64246  -0.58518
  Beta  occ. eigenvalues --   -0.57307  -0.56876  -0.51455  -0.50791  -0.50641
  Beta  occ. eigenvalues --   -0.46339  -0.45963  -0.44075  -0.42789  -0.40744
  Beta  occ. eigenvalues --   -0.40020  -0.39502  -0.33699
  Beta virt. eigenvalues --   -0.05719   0.00908   0.02669   0.02894   0.03316
  Beta virt. eigenvalues --    0.05511   0.05758   0.06166   0.06786   0.06846
  Beta virt. eigenvalues --    0.07463   0.09628   0.10153   0.10269   0.10273

 Mulliken atomic charges:
              1
     1  C   -0.050222
     2  C   -0.213439
     3  C   -0.513322
     4  C   -0.513321
     5  C   -0.463593
     6  O   -0.028795
     7  H    0.193500
     8  H    0.193500
     9  H    0.180045
    10  H    0.164047
    11  H    0.163587
    12  H    0.164048
    13  H    0.180045
    14  H    0.163587
    15  H    0.162908
    16  H    0.162908
    17  H    0.166790
    18  O   -0.112273
 Sum of Mulliken atomic charges =   0.00000

 Dipole moment (field-independent basis, Debye):
    X=              2.9810    Y=              0.7442    Z=              0.0000  Tot=              3.0725
 Quadrupole moment (field-independent basis, Debye-Ang):
   XX=            -52.5508   YY=            -44.2228   ZZ=            -43.6818
   XY=             -0.5947   XZ=              0.0000   YZ=              0.0000

  Exact polarizability:  81.772  -0.583  65.965   0.000   0.000  64.805
 Approx polarizability:  88.754  -2.183  78.570   0.000   0.000  76.271

                     1                      2                      3
                     A                      A                      A
 Frequencies --    64.8311               101.6154               176.4664
 Red. masses --     2.8085                 2.1434                 1.5599
 Frc consts  --     0.0070                 0.0130                 0.0286
 IR Inten    --     2.1187                 0.0641                 0.6574

                     4                      5                      6
                     A                      A                      A
 Frequencies --   178.0031               228.7098               229.1212
 Red. masses --     2.7743                 1.0623                 1.1431
 Frc consts  --     0.0518                 0.0327                 0.0354
 IR Inten    --     1.9346                 0.2475                 0.1548

                     7                      8                      9
                     A                      A                      A
 Frequencies --   326.5319               328.0101               359.5255
 Red. masses --     2.0589                 2.7203                 2.7189
 Frc consts  --     0.1293                 0.1724                 0.2071
 IR Inten    --     0.3231                 1.0074                 0.9969

                    10                     11                     12
                     A                      A                      A
 Frequencies --   407.0043               459.8016               529.1879
 Red. masses --     1.9796                 3.5247                 3.2219
 Frc consts  --     0.1932                 0.4390                 0.5316
 IR Inten    --     0.0643                 0.3236                 5.4229

                    13                     14                     15
                     A                      A                      A
 Frequencies --   785.5465               917.1259               948.5226
 Red. masses --     3.1837                 1.5905                 1.8952
 Frc consts  --     1.1575                 0.7882                 1.0046
 IR Inten    --     1.2597                 0.1186                 6.8820

                    16                     17                     18
                     A                      A                      A
 Frequencies --   949.1767               954.7831               957.3954
 Red. masses --     1.4653                 1.5305                 1.2202
 Frc consts  --     0.7778                 0.8220                 0.6590
 IR Inten    --     1.1970                 3.4333                 0.0487

                    19                     20                     21
                     A                      A                      A
 Frequencies --  1009.7819              1068.0555              1072.0333
 Red. masses --     2.9025                 1.4362                 2.1752
 Frc consts  --     1.7437                 0.9653                 1.4729
 IR Inten    --    16.9355                 0.3328                 7.5456

                    22                     23                     24
                     A                      A                      A
 Frequencies --  1212.1067              1256.0711              1299.5581
 Red. masses --     1.3369                 2.5946                 2.7537
 Frc consts  --     1.1573                 2.4119                 2.7401
 IR Inten    --     0.2195                 2.4461                17.9591

                    25                     26                     27
                     A                      A                      A
 Frequencies --  1313.5240              1315.7474              1387.4336
 Red. masses --     1.8366                 8.3414                 1.5314
 Frc consts  --     1.8669                 8.5081                 1.7369
 IR Inten    --     2.7068                19.1678                 1.6070

                    28                     29                     30
                     A                      A                      A
 Frequencies --  1396.3385              1396.9678              1428.9901
 Red. masses --     1.2825                 1.2863                 1.2385
 Frc consts  --     1.4733                 1.4790                 1.4901
 IR Inten    --    12.1264                 8.6174                11.1342

                    31                     32                     33
                     A                      A                      A
 Frequencies --  1477.9851              1480.3111              1486.9816
 Red. masses --     1.0454                 1.0740                 1.0508
 Frc consts  --     1.3454                 1.3866                 1.3690
 IR Inten    --     0.0086                 3.4491                 2.5083

                    34                     35                     36
                     A                      A                      A
 Frequencies --  1488.1521              1505.2527              1506.1047
 Red. masses --     1.0435                 1.0629                 1.0669
 Frc consts  --     1.3616                 1.4190                 1.4259
 IR Inten    --     0.0116                 7.0200                10.2393

                    37                     38                     39
                     A                      A                      A
 Frequencies --  1521.3258              3031.1554              3031.7672
 Red. masses --     1.0836                 1.0345                 1.0350
 Frc consts  --     1.4777                 5.6001                 5.6049
 IR Inten    --    19.5022                16.2366                25.7923

                    40                     41                     42
                     A                      A                      A
 Frequencies --  3036.3147              3061.9292              3102.4462
 Red. masses --     1.0361                 1.0560                 1.1027
 Frc consts  --     5.6278                 5.8332                 6.2534
 IR Inten    --     8.0212                11.0511                 1.0102

                    43                     44                     45
                     A                      A                      A
 Frequencies --  3104.3879              3105.5175              3109.5036
 Red. masses --     1.1022                 1.1027                 1.1015
 Frc consts  --     6.2587                 6.2659                 6.2752
 IR Inten    --     7.4101                20.1804                36.4640

                    46                     47                     48
                     A                      A                      A
 Frequencies --  3116.5537              3119.0128              3120.2505
 Red. masses --     1.1027                 1.1019                 1.1091
 Frc consts  --     6.3106                 6.3155                 6.3623
 IR Inten    --     0.5118                22.0074                21.1776

 - Thermochemistry -
 -------------------
 Temperature   298.150 Kelvin.  Pressure   1.00000 Atm.
 Atom     1 has atomic number  6 and mass  12.00000

 Molecular mass:   103.07590 amu.
 Principal axes and moments of inertia in atomic units:
                           1         2         3
     Eigenvalues --   415.637821137.630561146.60808
           X            1.00000   0.00044   0.00000
           Y           -0.00044   1.00000   0.00000
           Z            0.00000   0.00000   1.00000
 This molecule is an asymmetric top.
 Rotational symmetry number  1.
 Rotational temperatures (Kelvin)      0.20839     0.07614     0.07554
 Rotational constants (GHZ):           4.34210     1.58640     1.57398
 Zero-point vibrational energy     409499.2 (Joules/Mol)
                                   97.87265 (Kcal/Mol)
 Warning -- explicit consideration of  12 degrees of freedom as
           vibrations may cause significant error
 Vibrational temperatures:     93.28   146.20   253.90   256.11   329.06
          (Kelvin)            329.65   469.81   471.93   517.28   585.59
                              661.55   761.38  1130.22  1319.54  1364.71
                             1365.65  1373.72  1377.48  1452.85  1536.69
                             1542.41  1743.95  1807.20  1869.77  1889.87
                             1893.06  1996.21  2009.02  2009.92  2056.00
                             2126.49  2129.83  2139.43  2141.12  2165.72
                             2166.95  2188.85  4361.15  4362.03  4368.57
                             4405.43  4463.72  4466.52  4468.14  4473.88
                             4484.02  4487.56  4489.34

 Zero-point correction=                           0.155970 (Hartree/Particle)
 Thermal correction to Energy=                    0.164981
 Thermal correction to Enthalpy=                  0.165926
 Thermal correction to Gibbs Free Energy=         0.121979
 Sum of electronic and zero-point Energies=           -347.277834
 Sum of electronic and thermal Energies=              -347.268823
 Sum of electronic and thermal Enthalpies=            -347.267879
 Sum of electronic and thermal Free Energies=         -347.311825

                     E (Thermal)             CV                S
                      KCal/Mol        Cal/Mol-Kelvin    Cal/Mol-Kelvin
 Total                  103.527             31.608             92.493
 Electronic               0.000              0.000              1.377
 Translational            0.889              2.981             39.808
 Rotational               0.889              2.981             27.785
 Vibrational            101.750             25.646             23.521
 Vibration     1          0.597              1.971              4.304
 Vibration     2          0.604              1.948              3.423
 Vibration     3          0.628              1.871              2.365
 Vibration     4          0.628              1.869              2.349
 Vibration     5          0.651              1.797              1.889
 Vibration     6          0.652              1.797              1.886
 Vibration     7          0.710              1.622              1.277
 Vibration     8          0.711              1.620              1.270
 Vibration     9          0.734              1.556              1.124
 Vibration    10          0.772              1.455              0.937
 Vibration    11          0.818              1.339              0.767
 Vibration    12          0.884              1.185              0.589

 Normal termination of Gaussian 09 at Sun Oct  1 00:48:31 2017.
