 Gaussian 09, Revision B.01,
 Gaussian 09:  EM64L-G09RevB.01 12-Aug-2010

 --------------------------------------------------------------
 # m062x/6-311+g(2df,2p) opt=(verytight,gdiis) freq IOP(2/16=3)
 --------------------------------------------------------------

 ---------------------------------------------
 InChI=1S/C7H15/c1-3-5-7-6-4-2/h1,3-7H2,2H3/u1
 ---------------------------------------------
 Symbolic Z-matrix:
 Charge =  0 Multiplicity = 2

 SCF Done:  E(UM062X) =  -275.644403630     A.U. after   13 cycles
 SCF Done:  E(UM062X) =  -275.654930175     A.U. after   12 cycles
 SCF Done:  E(UM062X) =  -275.659569481     A.U. after   12 cycles
 SCF Done:  E(UM062X) =  -275.660232562     A.U. after   11 cycles
 SCF Done:  E(UM062X) =  -275.660377986     A.U. after   10 cycles
 SCF Done:  E(UM062X) =  -275.660445708     A.U. after   10 cycles
 SCF Done:  E(UM062X) =  -275.660473465     A.U. after   10 cycles
 SCF Done:  E(UM062X) =  -275.660477333     A.U. after    9 cycles
 SCF Done:  E(UM062X) =  -275.660481773     A.U. after   10 cycles
 SCF Done:  E(UM062X) =  -275.660482671     A.U. after    9 cycles
 SCF Done:  E(UM062X) =  -275.660484315     A.U. after    4 cycles
 SCF Done:  E(UM062X) =  -275.660484314     A.U. after    2 cycles
 SCF Done:  E(UM062X) =  -275.660484314     A.U. after    2 cycles
 SCF Done:  E(UM062X) =  -275.660484314     A.U. after    1 cycles
 SCF Done:  E(UM062X) =  -275.660484318     A.U. after    5 cycles
 SCF Done:  E(UM062X) =  -275.660484310     A.U. after    6 cycles
 SCF Done:  E(UM062X) =  -275.660484312     A.U. after    4 cycles
 SCF Done:  E(UM062X) =  -275.660484313     A.U. after    4 cycles
 SCF Done:  E(UM062X) =  -275.660484313     A.U. after    4 cycles
 Optimization completed on the basis of negligible forces.
    -- Stationary point found.
 Normal termination of Gaussian 09 at Wed Mar 15 16:37:41 2017.

 ----------------------------------------------------------------------
 #N Geom=AllCheck Guess=TCheck SCRF=Check Test GenChk UM062X/6-311+G(2d
 f,2p) Freq
 ----------------------------------------------------------------------

 InChI=1S/C7H15/c1-3-5-7-6-4-2/h1,3-7H2,2H3/u1
 ---------------------------------------------
 Redundant internal coordinates taken from checkpoint file:
 /gss_gpfs_scratch/westgroup/rwest-autotst-1/Gau-40467.chk
 Charge =  0 Multiplicity = 2

                         Standard orientation:
 ---------------------------------------------------------------------
 Center     Atomic      Atomic             Coordinates (Angstroms)
 Number     Number       Type             X           Y           Z
 ---------------------------------------------------------------------
      1          6           0       -0.074896    0.482905    0.023668
      2          6           0        1.204609   -0.343960   -0.012889
      3          6           0       -1.338272   -0.367125   -0.022185
      4          6           0        2.471689    0.502911    0.021862
      5          6           0       -2.620462    0.462185    0.012381
      6          6           0        3.740528   -0.340477   -0.018786
      7          6           0       -3.853754   -0.364852   -0.021701
      8          1           0       -1.333654   -0.981490   -0.926890
      9          1           0       -1.340534   -1.062944    0.822422
     10          1           0       -0.078014    1.180756   -0.819729
     11          1           0       -0.083316    1.097846    0.929291
     12          1           0        1.209709   -0.963322   -0.915535
     13          1           0        1.211566   -1.038474    0.833321
     14          1           0        2.462288    1.196028   -0.823479
     15          1           0        2.466455    1.119922    0.924329
     16          1           0       -2.622315    1.170180   -0.822327
     17          1           0       -2.606576    1.087034    0.918103
     18          1           0        4.637120    0.278159    0.002444
     19          1           0        3.772822   -0.946545   -0.925415
     20          1           0        3.781408   -1.020003    0.833711
     21          1           0       -4.803343    0.058563   -0.311581
     22          1           0       -3.850272   -1.365229    0.387236
 ---------------------------------------------------------------------

 SCF Done:  E(UM062X) =  -275.660484313     A.U. after    1 cycles

 The electronic state is 2-A.
 Alpha  occ. eigenvalues --  -10.53643 -10.53302 -10.52720 -10.52608 -10.52565
 Alpha  occ. eigenvalues --  -10.52465 -10.51893  -0.91467  -0.88236  -0.82874
 Alpha  occ. eigenvalues --   -0.76046  -0.69299  -0.66129  -0.65731  -0.55764
 Alpha  occ. eigenvalues --   -0.52748  -0.51106  -0.50064  -0.48081  -0.46836
 Alpha  occ. eigenvalues --   -0.44522  -0.43226  -0.42017  -0.40311  -0.39016
 Alpha  occ. eigenvalues --   -0.38515  -0.38075  -0.36599  -0.25568
 Alpha virt. eigenvalues --    0.01940   0.02710   0.02948   0.03751   0.04131
 Alpha virt. eigenvalues --    0.04550   0.05997   0.06341   0.06805   0.06950
 Alpha virt. eigenvalues --    0.07156   0.08621   0.08894   0.09667   0.10334

  Beta  occ. eigenvalues --  -10.53366 -10.52956 -10.52701 -10.52608 -10.52564
  Beta  occ. eigenvalues --  -10.52465 -10.51893  -0.91260  -0.87705  -0.82043
  Beta  occ. eigenvalues --   -0.74981  -0.68207  -0.65962  -0.64686  -0.55603
  Beta  occ. eigenvalues --   -0.52277  -0.50453  -0.49811  -0.47572  -0.46313
  Beta  occ. eigenvalues --   -0.44020  -0.42882  -0.41611  -0.40103  -0.38818
  Beta  occ. eigenvalues --   -0.38486  -0.38053  -0.36412
  Beta virt. eigenvalues --   -0.02425   0.01753   0.02390   0.02868   0.03690
  Beta virt. eigenvalues --    0.04169   0.04580   0.05868   0.06312   0.06602
  Beta virt. eigenvalues --    0.07014   0.07251   0.08615   0.08756   0.09041

 Mulliken atomic charges:
              1
     1  C   -0.250948
     2  C   -0.319167
     3  C   -0.320336
     4  C   -0.215060
     5  C   -0.218219
     6  C   -0.585254
     7  C   -0.490889
     8  H    0.174533
     9  H    0.170738
    10  H    0.168909
    11  H    0.168673
    12  H    0.168104
    13  H    0.167898
    14  H    0.155309
    15  H    0.155395
    16  H    0.153572
    17  H    0.150280
    18  H    0.141568
    19  H    0.137121
    20  H    0.137082
    21  H    0.178941
    22  H    0.171750
 Sum of Mulliken atomic charges =   0.00000

 Dipole moment (field-independent basis, Debye):
    X=              0.2586    Y=              0.2398    Z=              0.1087  Tot=              0.3691
 Quadrupole moment (field-independent basis, Debye-Ang):
   XX=            -50.0649   YY=            -48.4570   ZZ=            -48.0658
   XY=             -0.5259   XZ=             -0.1689   YZ=             -0.6436

  Exact polarizability: 107.580   0.719  79.168   0.284   0.212  73.153
 Approx polarizability:  98.148   0.779  97.616   0.364   0.111  94.471

                     1                      2                      3
                     A                      A                      A
 Frequencies --    67.2665                84.6498                99.7341
 Red. masses --     2.8847                 1.7085                 2.9367
 Frc consts  --     0.0077                 0.0072                 0.0172
 IR Inten    --     0.0057                 0.0545                 0.0376

                     4                      5                      6
                     A                      A                      A
 Frequencies --   147.7946               150.2535               165.3242
 Red. masses --     2.2133                 1.6932                 1.0836
 Frc consts  --     0.0285                 0.0225                 0.0174
 IR Inten    --     0.0158                 0.0792                 0.0818

                     7                      8                      9
                     A                      A                      A
 Frequencies --   247.1439               263.8959               310.1705
 Red. masses --     2.6192                 1.1060                 3.7746
 Frc consts  --     0.0943                 0.0454                 0.2140
 IR Inten    --     0.2221                 0.0026                 0.1516

                    10                     11                     12
                     A                      A                      A
 Frequencies --   413.8032               456.2756               494.6536
 Red. masses --     2.0891                 1.4874                 2.7222
 Frc consts  --     0.2108                 0.1824                 0.3924
 IR Inten    --     9.2780                37.4786                 4.8699

                    13                     14                     15
                     A                      A                      A
 Frequencies --   726.7342               735.3841               781.7308
 Red. masses --     1.0807                 1.0958                 1.1904
 Frc consts  --     0.3363                 0.3492                 0.4286
 IR Inten    --     2.4165                 1.6733                 0.4984

                    16                     17                     18
                     A                      A                      A
 Frequencies --   864.7475               901.3814               924.1612
 Red. masses --     1.3138                 1.6983                 1.4814
 Frc consts  --     0.5788                 0.8130                 0.7455
 IR Inten    --     1.0653                 1.0944                 0.7196

                    19                     20                     21
                     A                      A                      A
 Frequencies --   996.0147              1028.0566              1067.1286
 Red. masses --     1.3301                 3.6667                 1.6257
 Frc consts  --     0.7775                 2.2833                 1.0907
 IR Inten    --     0.3401                 0.0433                 1.3256

                    22                     23                     24
                     A                      A                      A
 Frequencies --  1074.6623              1094.2504              1104.3002
 Red. masses --     2.7852                 1.9887                 2.0009
 Frc consts  --     1.8952                 1.4030                 1.4376
 IR Inten    --     0.2229                 0.1600                 0.9931

                    25                     26                     27
                     A                      A                      A
 Frequencies --  1123.5802              1169.4171              1222.0375
 Red. masses --     1.6421                 2.4872                 1.6225
 Frc consts  --     1.2214                 2.0040                 1.4276
 IR Inten    --     1.3960                 0.3226                 0.0681

                    28                     29                     30
                     A                      A                      A
 Frequencies --  1259.5291              1278.8998              1315.4710
 Red. masses --     1.3113                 1.2928                 1.2609
 Frc consts  --     1.2257                 1.2458                 1.2855
 IR Inten    --     0.6019                 0.2556                 0.3911

                    31                     32                     33
                     A                      A                      A
 Frequencies --  1324.7295              1337.6158              1343.8621
 Red. masses --     1.1908                 1.0788                 1.0940
 Frc consts  --     1.2313                 1.1372                 1.1641
 IR Inten    --     0.0810                 0.0196                 0.5534

                    34                     35                     36
                     A                      A                      A
 Frequencies --  1371.7719              1406.0562              1415.2287
 Red. masses --     1.4458                 1.5859                 1.6363
 Frc consts  --     1.6030                 1.8473                 1.9309
 IR Inten    --     0.9246                 0.3487                 1.4473

                    37                     38                     39
                     A                      A                      A
 Frequencies --  1419.4454              1467.8649              1474.5963
 Red. masses --     1.3722                 1.1819                 1.0881
 Frc consts  --     1.6290                 1.5004                 1.3940
 IR Inten    --     2.2398                 1.9556                 1.2602

                    40                     41                     42
                     A                      A                      A
 Frequencies --  1489.9678              1491.9865              1499.8440
 Red. masses --     1.0751                 1.0747                 1.0695
 Frc consts  --     1.4062                 1.4095                 1.4175
 IR Inten    --     0.0152                 0.1942                 1.2458

                    43                     44                     45
                     A                      A                      A
 Frequencies --  1509.6065              1511.6764              1518.6726
 Red. masses --     1.0783                 1.0491                 1.0935
 Frc consts  --     1.4479                 1.4125                 1.4859
 IR Inten    --     2.2787                 6.4120                11.5596

                    46                     47                     48
                     A                      A                      A
 Frequencies --  2982.8399              3024.4802              3029.2376
 Red. masses --     1.0691                 1.0617                 1.0650
 Frc consts  --     5.6044                 5.7219                 5.7579
 IR Inten    --    18.3879                 0.0319                 1.7972

                    49                     50                     51
                     A                      A                      A
 Frequencies --  3034.8830              3043.1098              3046.4746
 Red. masses --     1.0745                 1.0691                 1.0615
 Frc consts  --     5.8309                 5.8332                 5.8048
 IR Inten    --     5.8637                 8.0965                73.8563

                    52                     53                     54
                     A                      A                      A
 Frequencies --  3053.4462              3056.8701              3069.0442
 Red. masses --     1.0379                 1.0967                 1.1003
 Frc consts  --     5.7013                 6.0377                 6.1064
 IR Inten    --    43.3809                 0.0744                 0.1288

                    55                     56                     57
                     A                      A                      A
 Frequencies --  3085.1753              3095.0399              3120.3848
 Red. masses --     1.1031                 1.1038                 1.1025
 Frc consts  --     6.1864                 6.2299                 6.3250
 IR Inten    --     0.2795                73.3396                45.1436

                    58                     59                     60
                     A                      A                      A
 Frequencies --  3132.5821              3158.3948              3260.3403
 Red. masses --     1.1016                 1.0515                 1.1185
 Frc consts  --     6.3690                 6.1802                 7.0052
 IR Inten    --    29.0782                14.4885                 8.8062

 - Thermochemistry -
 -------------------
 Temperature   298.150 Kelvin.  Pressure   1.00000 Atm.
 Atom     1 has atomic number  6 and mass  12.00000

 Molecular mass:    99.11738 amu.
 Principal axes and moments of inertia in atomic units:
                           1         2         3
     Eigenvalues --   142.552382397.931332472.24430
           X            1.00000  -0.00195  -0.00040
           Y            0.00194   0.99987  -0.01573
           Z            0.00043   0.01573   0.99988
 This molecule is an asymmetric top.
 Rotational symmetry number  1.
 Rotational temperatures (Kelvin)      0.60759     0.03612     0.03503
 Rotational constants (GHZ):          12.66020     0.75262     0.73000
 Zero-point vibrational energy     534393.9 (Joules/Mol)
                                  127.72320 (Kcal/Mol)
 Warning -- explicit consideration of  12 degrees of freedom as
           vibrations may cause significant error
 Vibrational temperatures:     96.78   121.79   143.50   212.64   216.18
          (Kelvin)            237.86   355.58   379.69   446.27   595.37
                              656.48   711.70  1045.61  1058.05  1124.73
                             1244.18  1296.89  1329.66  1433.04  1479.14
                             1535.36  1546.20  1574.38  1588.84  1616.58
                             1682.53  1758.24  1812.18  1840.05  1892.67
                             1905.99  1924.53  1933.52  1973.67  2023.00
                             2036.20  2042.26  2111.93  2121.61  2143.73
                             2146.63  2157.94  2171.98  2174.96  2185.03
                             4291.64  4351.55  4358.39  4366.51  4378.35
                             4383.19  4393.22  4398.15  4415.66  4438.87
                             4453.07  4489.53  4507.08  4544.22  4690.90

 Zero-point correction=                           0.203540 (Hartree/Particle)
 Thermal correction to Energy=                    0.213545
 Thermal correction to Enthalpy=                  0.214489
 Thermal correction to Gibbs Free Energy=         0.168003
 Sum of electronic and zero-point Energies=           -275.456944
 Sum of electronic and thermal Energies=              -275.446940
 Sum of electronic and thermal Enthalpies=            -275.445996
 Sum of electronic and thermal Free Energies=         -275.492481

                     E (Thermal)             CV                S
                      KCal/Mol        Cal/Mol-Kelvin    Cal/Mol-Kelvin
 Total                  134.001             34.957             97.837
 Electronic               0.000              0.000              1.377
 Translational            0.889              2.981             39.692
 Rotational               0.889              2.981             28.226
 Vibrational            132.224             28.995             28.542
 Vibration     1          0.598              1.970              4.232
 Vibration     2          0.601              1.960              3.780
 Vibration     3          0.604              1.949              3.460
 Vibration     4          0.617              1.905              2.700
 Vibration     5          0.618              1.902              2.669
 Vibration     6          0.624              1.885              2.488
 Vibration     7          0.661              1.768              1.751
 Vibration     8          0.670              1.739              1.636
 Vibration     9          0.699              1.654              1.361
 Vibration    10          0.777              1.440              0.913
 Vibration    11          0.815              1.347              0.777
 Vibration    12          0.850              1.262              0.672

 Optimization completed on the basis of negligible forces.
    -- Stationary point found.
 Normal termination of Gaussian 09 at Wed Mar 15 17:33:52 2017.
