 Gaussian 09, Revision B.01,
 Gaussian 09:  EM64L-G09RevB.01 12-Aug-2010

 --------------------------------------------------------------
 # m062x/6-311+g(2df,2p) opt=(verytight,gdiis) freq IOP(2/16=3)
 --------------------------------------------------------------

 ---------------------------------------
 InChI=1S/C4H6O/c1-2-4-5-3-1/h1-2H,3-4H2
 ---------------------------------------
 Symbolic Z-matrix:
 Charge =  0 Multiplicity = 1

 SCF Done:  E(RM062X) =  -231.190098611     A.U. after   10 cycles
 SCF Done:  E(RM062X) =  -231.194122950     A.U. after    9 cycles
 SCF Done:  E(RM062X) =  -231.194388865     A.U. after    8 cycles
 SCF Done:  E(RM062X) =  -231.194401021     A.U. after    7 cycles
 SCF Done:  E(RM062X) =  -231.194402499     A.U. after    6 cycles
 SCF Done:  E(RM062X) =  -231.194402520     A.U. after    5 cycles
 SCF Done:  E(RM062X) =  -231.194402520     A.U. after    4 cycles
 SCF Done:  E(RM062X) =  -231.194402520     A.U. after    2 cycles
 Optimization completed.
    -- Stationary point found.
 Normal termination of Gaussian 09 at Fri Aug  4 17:31:22 2017.

 ----------------------------------------------------------------------
 #N Geom=AllCheck Guess=TCheck SCRF=Check Test GenChk RM062X/6-311+G(2d
 f,2p) Freq
 ----------------------------------------------------------------------

 InChI=1S/C4H6O/c1-2-4-5-3-1/h1-2H,3-4H2
 ---------------------------------------
 Redundant internal coordinates taken from checkpoint file:
 /gss_gpfs_scratch/harms.n/comparerTST/Gau-40071.chk
 Charge =  0 Multiplicity = 1

                         Standard orientation:
 ---------------------------------------------------------------------
 Center     Atomic      Atomic             Coordinates (Angstroms)
 Number     Number       Type             X           Y           Z
 ---------------------------------------------------------------------
      1          6           0       -1.167930   -0.371788    0.000007
      2          6           0        1.167930   -0.371787    0.000008
      3          6           0        0.660782    1.039842   -0.000004
      4          6           0       -0.660782    1.039842   -0.000003
      5          8           0        0.000000   -1.179499   -0.000014
      6          1           0       -1.771935   -0.597669    0.884627
      7          1           0       -1.771967   -0.597676   -0.884588
      8          1           0        1.771935   -0.597668    0.884627
      9          1           0        1.771967   -0.597676   -0.884587
     10          1           0        1.306677    1.905014   -0.000007
     11          1           0       -1.306678    1.905014   -0.000006
 ---------------------------------------------------------------------

 SCF Done:  E(RM062X) =  -231.194402520     A.U. after    1 cycles

 The electronic state is 1-A.
 Alpha  occ. eigenvalues --  -19.62025 -10.58489 -10.58487 -10.54344 -10.54225
 Alpha  occ. eigenvalues --   -1.16267  -0.89439  -0.83676  -0.69096  -0.64693
 Alpha  occ. eigenvalues --   -0.59308  -0.56272  -0.49973  -0.48163  -0.47072
 Alpha  occ. eigenvalues --   -0.42370  -0.40034  -0.35655  -0.29985
 Alpha virt. eigenvalues --    0.01447   0.03085   0.03760   0.03802   0.05089
 Alpha virt. eigenvalues --    0.05512   0.05874   0.07428   0.08106   0.09153
 Alpha virt. eigenvalues --    0.10373   0.11491   0.13163   0.14421   0.15656

 Mulliken atomic charges:
              1
     1  C   -0.218430
     2  C   -0.218430
     3  C   -0.062874
     4  C   -0.062874
     5  O   -0.235498
     6  H    0.130880
     7  H    0.130880
     8  H    0.130880
     9  H    0.130880
    10  H    0.137292
    11  H    0.137292
 Sum of Mulliken atomic charges =   0.00000

 Dipole moment (field-independent basis, Debye):
    X=              0.0000    Y=              1.6476    Z=              0.0000  Tot=              1.6476
 Quadrupole moment (field-independent basis, Debye-Ang):
   XX=            -26.1668   YY=            -32.3973   ZZ=            -31.3171
   XY=              0.0000   XZ=              0.0000   YZ=             -0.0001

  Exact polarizability:  60.306   0.000  46.268   0.000   0.000  37.985
 Approx polarizability:  73.006   0.000  52.600   0.000   0.000  47.187

                     1                      2                      3
                     A                      A                      A
 Frequencies --   104.0488               405.4436               701.3743
 Red. masses --     2.3425                 2.0640                 1.1026
 Frc consts  --     0.0149                 0.1999                 0.3196
 IR Inten    --    10.5261                 0.0000                39.8584

                     4                      5                      6
                     A                      A                      A
 Frequencies --   762.5570               820.9486               931.9799
 Red. masses --     7.4454                 5.8536                 1.9044
 Frc consts  --     2.5508                 2.3244                 0.9746
 IR Inten    --     7.0566                 0.9314                 1.0247

                     7                      8                      9
                     A                      A                      A
 Frequencies --   953.2866               984.8390              1003.8831
 Red. masses --     3.5430                 1.1521                 2.5534
 Frc consts  --     1.8970                 0.6584                 1.5161
 IR Inten    --    22.7539                 0.0000                10.8608

                    10                     11                     12
                     A                      A                      A
 Frequencies --  1038.3101              1074.1471              1121.4584
 Red. masses --     1.5756                 1.7581                 1.2252
 Frc consts  --     1.0008                 1.1952                 0.9078
 IR Inten    --    19.9147                 0.0000                 0.7384

                    13                     14                     15
                     A                      A                      A
 Frequencies --  1170.5651              1205.2975              1244.0905
 Red. masses --     9.1525                 1.0840                 1.0566
 Frc consts  --     7.3889                 0.9278                 0.9635
 IR Inten    --   105.7761                 1.5327                 0.0000

                    16                     17                     18
                     A                      A                      A
 Frequencies --  1337.3278              1387.0445              1407.3144
 Red. masses --     1.2897                 1.7817                 1.5350
 Frc consts  --     1.3590                 2.0196                 1.7912
 IR Inten    --     0.6137                 5.5831                 3.2698

                    19                     20                     21
                     A                      A                      A
 Frequencies --  1523.2665              1533.1342              1706.0017
 Red. masses --     1.0849                 1.0893                 6.3957
 Frc consts  --     1.4832                 1.5085                10.9672
 IR Inten    --     0.1215                 2.3721                 0.0355

                    22                     23                     24
                     A                      A                      A
 Frequencies --  3042.1365              3045.7015              3066.5894
 Red. masses --     1.0554                 1.0571                 1.1057
 Frc consts  --     5.7548                 5.7777                 6.1263
 IR Inten    --   115.8659                 3.5775                 0.0000

                    25                     26                     27
                     A                      A                      A
 Frequencies --  3068.3566              3226.2554              3248.7392
 Red. masses --     1.1084                 1.0870                 1.1065
 Frc consts  --     6.1482                 6.6664                 6.8806
 IR Inten    --    58.1756                 0.6930                 2.8667

 - Thermochemistry -
 -------------------
 Temperature   298.150 Kelvin.  Pressure   1.00000 Atm.
 Atom     1 has atomic number  6 and mass  12.00000

 Molecular mass:    70.04186 amu.
 Principal axes and moments of inertia in atomic units:
                           1         2         3
     Eigenvalues --   223.08552 226.41211 426.96698
           X            0.00000   1.00000   0.00000
           Y            1.00000   0.00000   0.00000
           Z            0.00000   0.00000   1.00000
 This molecule is an asymmetric top.
 Rotational symmetry number  1.
 Rotational temperatures (Kelvin)      0.38825     0.38255     0.20286
 Rotational constants (GHZ):           8.08991     7.97105     4.22689
 Zero-point vibrational energy     245916.9 (Joules/Mol)
                                   58.77555 (Kcal/Mol)
 Warning -- explicit consideration of   2 degrees of freedom as
           vibrations may cause significant error
 Vibrational temperatures:    149.70   583.34  1009.12  1097.15  1181.16
          (Kelvin)           1340.91  1371.57  1416.96  1444.36  1493.89
                             1545.46  1613.53  1684.18  1734.15  1789.97
                             1924.11  1995.65  2024.81  2191.64  2205.84
                             2454.55  4376.95  4382.08  4412.13  4414.68
                             4641.86  4674.21

 Zero-point correction=                           0.093665 (Hartree/Particle)
 Thermal correction to Energy=                    0.098137
 Thermal correction to Enthalpy=                  0.099081
 Thermal correction to Gibbs Free Energy=         0.066233
 Sum of electronic and zero-point Energies=           -231.100738
 Sum of electronic and thermal Energies=              -231.096265
 Sum of electronic and thermal Enthalpies=            -231.095321
 Sum of electronic and thermal Free Energies=         -231.128169

                     E (Thermal)             CV                S
                      KCal/Mol        Cal/Mol-Kelvin    Cal/Mol-Kelvin
 Total                   61.582             15.203             69.134
 Electronic               0.000              0.000              0.000
 Translational            0.889              2.981             38.657
 Rotational               0.889              2.981             24.582
 Vibrational             59.805              9.241              5.896
 Vibration     1          0.605              1.946              3.377
 Vibration     2          0.770              1.458              0.943

 Normal termination of Gaussian 09 at Fri Aug  4 17:36:18 2017.
