 Gaussian 09, Revision B.01,
 Gaussian 09:  EM64L-G09RevB.01 12-Aug-2010

 --------------------------------------------------------------
 # m062x/6-311+g(2df,2p) opt=(verytight,gdiis) freq IOP(2/16=3)
 --------------------------------------------------------------

 ------------------------------------------------------
 InChI=1S/C8H17/c1-5-8(4)6-7(2)3/h7-8H,1,5-6H2,2-4H3/u1
 ------------------------------------------------------
 Symbolic Z-matrix:
 Charge =  0 Multiplicity = 2

 SCF Done:  E(UM062X) =  -314.954529888     A.U. after   14 cycles
 SCF Done:  E(UM062X) =  -314.964981988     A.U. after   12 cycles
 SCF Done:  E(UM062X) =  -314.969327720     A.U. after   15 cycles
 SCF Done:  E(UM062X) =  -314.969721480     A.U. after   15 cycles
 SCF Done:  E(UM062X) =  -314.970053114     A.U. after   12 cycles
 SCF Done:  E(UM062X) =  -314.970187766     A.U. after   11 cycles
 SCF Done:  E(UM062X) =  -314.970216705     A.U. after   10 cycles
 SCF Done:  E(UM062X) =  -314.970232120     A.U. after   10 cycles
 SCF Done:  E(UM062X) =  -314.970236897     A.U. after   10 cycles
 SCF Done:  E(UM062X) =  -314.970241351     A.U. after   10 cycles
 SCF Done:  E(UM062X) =  -314.970253793     A.U. after    7 cycles
 SCF Done:  E(UM062X) =  -314.970253794     A.U. after    7 cycles
 SCF Done:  E(UM062X) =  -314.970253792     A.U. after    5 cycles
 SCF Done:  E(UM062X) =  -314.970253792     A.U. after    3 cycles
 SCF Done:  E(UM062X) =  -314.970253793     A.U. after    5 cycles
 SCF Done:  E(UM062X) =  -314.970253794     A.U. after    4 cycles
 SCF Done:  E(UM062X) =  -314.970253794     A.U. after    3 cycles
 SCF Done:  E(UM062X) =  -314.970253794     A.U. after    3 cycles
 SCF Done:  E(UM062X) =  -314.970253794     A.U. after    2 cycles
 Optimization completed.
    -- Stationary point found.
 Normal termination of Gaussian 09 at Fri May 19 02:41:13 2017.

 ----------------------------------------------------------------------
 #N Geom=AllCheck Guess=TCheck SCRF=Check Test GenChk UM062X/6-311+G(2d
 f,2p) Freq
 ----------------------------------------------------------------------

 InChI=1S/C8H17/c1-5-8(4)6-7(2)3/h7-8H,1,5-6H2,2-4H3/u1
 ------------------------------------------------------
 Redundant internal coordinates taken from checkpoint file:
 /home/harms.n/Code/OOHabstraction/Biofuels/results/Gau-28460.chk
 Charge =  0 Multiplicity = 2

                         Standard orientation:
 ---------------------------------------------------------------------
 Center     Atomic      Atomic             Coordinates (Angstroms)
 Number     Number       Type             X           Y           Z
 ---------------------------------------------------------------------
      1          6           0        0.942975    0.475428    0.138818
      2          6           0       -1.611461    0.102372   -0.165776
      3          6           0       -0.186408   -0.397851   -0.413107
      4          6           0        2.308074   -0.145928   -0.196818
      5          6           0        0.866269    1.904076   -0.390028
      6          6           0       -2.616304   -0.894450   -0.737932
      7          6           0       -1.880979    0.336120    1.318602
      8          6           0        2.526382   -1.479463    0.421013
      9          1           0        0.862151    0.502926    1.230655
     10          1           0       -1.744753    1.051805   -0.692689
     11          1           0       -0.094392   -1.402620    0.013887
     12          1           0       -0.034023   -0.510877   -1.493201
     13          1           0        2.414335   -0.210334   -1.284039
     14          1           0        3.088669    0.552329    0.138486
     15          1           0        1.715046    2.495710   -0.045265
     16          1           0       -0.044421    2.408630   -0.067399
     17          1           0        0.878660    1.905617   -1.482961
     18          1           0       -2.535653   -1.853333   -0.220675
     19          1           0       -2.437474   -1.072051   -1.799121
     20          1           0       -3.639537   -0.536170   -0.620894
     21          1           0       -1.678520   -0.574979    1.887849
     22          1           0       -1.256809    1.130862    1.727586
     23          1           0       -2.922954    0.610238    1.486866
     24          1           0        3.079871   -2.256068   -0.083491
     25          1           0        2.258510   -1.643517    1.455770
 ---------------------------------------------------------------------

 SCF Done:  E(UM062X) =  -314.970253794     A.U. after    1 cycles

 The electronic state is 2-A.
 Alpha  occ. eigenvalues --  -10.53685 -10.53483 -10.53245 -10.53180 -10.52140
 Alpha  occ. eigenvalues --  -10.51973 -10.51803 -10.51697  -0.92986  -0.88666
 Alpha  occ. eigenvalues --   -0.82236  -0.77379  -0.76706  -0.70557  -0.65660
 Alpha  occ. eigenvalues --   -0.62379  -0.55451  -0.52094  -0.51746  -0.50583
 Alpha  occ. eigenvalues --   -0.48521  -0.47164  -0.46370  -0.44720  -0.43664
 Alpha  occ. eigenvalues --   -0.43112  -0.41180  -0.39915  -0.39308  -0.37404
 Alpha  occ. eigenvalues --   -0.36725  -0.36295  -0.25550
 Alpha virt. eigenvalues --    0.01476   0.02541   0.02705   0.02907   0.04696
 Alpha virt. eigenvalues --    0.04759   0.05197   0.05467   0.06039   0.07500
 Alpha virt. eigenvalues --    0.07632   0.08156   0.08671   0.08838   0.09653

  Beta  occ. eigenvalues --  -10.53448 -10.53248 -10.53246 -10.53001 -10.52129
  Beta  occ. eigenvalues --  -10.51974 -10.51803 -10.51697  -0.92767  -0.88271
  Beta  occ. eigenvalues --   -0.80718  -0.77359  -0.76667  -0.68633  -0.64897
  Beta  occ. eigenvalues --   -0.62259  -0.55220  -0.51772  -0.51275  -0.50132
  Beta  occ. eigenvalues --   -0.48109  -0.46374  -0.46122  -0.44644  -0.43329
  Beta  occ. eigenvalues --   -0.42713  -0.41098  -0.39664  -0.39233  -0.37271
  Beta  occ. eigenvalues --   -0.36613  -0.36017
  Beta virt. eigenvalues --   -0.01714   0.01333   0.02299   0.02641   0.02736
  Beta virt. eigenvalues --    0.04644   0.04728   0.05138   0.05553   0.05946
  Beta virt. eigenvalues --    0.07528   0.07627   0.08194   0.08701   0.08923

 Mulliken atomic charges:
              1
     1  C    0.052554
     2  C    0.123791
     3  C   -0.611697
     4  C   -0.152003
     5  C   -0.621361
     6  C   -0.574109
     7  C   -0.589084
     8  C   -0.541692
     9  H    0.203705
    10  H    0.186412
    11  H    0.199461
    12  H    0.199339
    13  H    0.182006
    14  H    0.152737
    15  H    0.153987
    16  H    0.163217
    17  H    0.177989
    18  H    0.154245
    19  H    0.144749
    20  H    0.151246
    21  H    0.173560
    22  H    0.155951
    23  H    0.155156
    24  H    0.180253
    25  H    0.179588
 Sum of Mulliken atomic charges =   0.00000

 Dipole moment (field-independent basis, Debye):
    X=              0.0113    Y=              0.3112    Z=             -0.0461  Tot=              0.3148
 Quadrupole moment (field-independent basis, Debye-Ang):
   XX=            -55.7601   YY=            -55.7525   ZZ=            -54.6813
   XY=             -0.1560   XZ=             -0.3995   YZ=              0.0081

  Exact polarizability: 107.256  -0.326  95.664  -0.081  -0.182  88.084
 Approx polarizability: 111.994  -0.413 113.094  -0.364  -0.682 111.193

                     1                      2                      3
                     A                      A                      A
 Frequencies --    72.0110                96.7508               114.0255
 Red. masses --     2.5302                 2.0175                 1.4727
 Frc consts  --     0.0077                 0.0111                 0.0113
 IR Inten    --     0.0107                 0.0035                 0.3754

                     4                      5                      6
                     A                      A                      A
 Frequencies --   139.8638               179.9497               212.0113
 Red. masses --     1.5273                 2.1443                 1.5913
 Frc consts  --     0.0176                 0.0409                 0.0421
 IR Inten    --     0.5523                 0.2092                 0.0684

                     7                      8                      9
                     A                      A                      A
 Frequencies --   236.1272               258.0344               264.9867
 Red. masses --     1.0735                 1.1359                 1.4801
 Frc consts  --     0.0353                 0.0446                 0.0612
 IR Inten    --     0.0577                 0.1143                 0.0252

                    10                     11                     12
                     A                      A                      A
 Frequencies --   332.0114               368.2372               406.5909
 Red. masses --     2.1548                 2.1083                 2.1293
 Frc consts  --     0.1399                 0.1684                 0.2074
 IR Inten    --     0.0640                 1.5367                 1.5380

                    13                     14                     15
                     A                      A                      A
 Frequencies --   446.5078               459.2932               464.4606
 Red. masses --     2.3588                 1.7527                 1.6293
 Frc consts  --     0.2771                 0.2178                 0.2071
 IR Inten    --     4.7427                 2.6936                24.9549

                    16                     17                     18
                     A                      A                      A
 Frequencies --   514.7257               798.0608               822.3999
 Red. masses --     2.1786                 1.6777                 2.1137
 Frc consts  --     0.3401                 0.6295                 0.8423
 IR Inten    --    15.1025                 1.0372                 1.2744

                    19                     20                     21
                     A                      A                      A
 Frequencies --   854.5546               880.5834               934.6283
 Red. masses --     1.7881                 1.4686                 1.1611
 Frc consts  --     0.7694                 0.6709                 0.5976
 IR Inten    --     0.7498                 0.3771                 1.3543

                    22                     23                     24
                     A                      A                      A
 Frequencies --   946.3317               965.4479               979.0795
 Red. masses --     1.8038                 1.2267                 1.4735
 Frc consts  --     0.9518                 0.6737                 0.8322
 IR Inten    --     0.7004                 1.5659                 0.0950

                    25                     26                     27
                     A                      A                      A
 Frequencies --   991.5737              1043.3639              1094.3436
 Red. masses --     1.6940                 1.4295                 2.2531
 Frc consts  --     0.9813                 0.9168                 1.5898
 IR Inten    --     4.4195                 0.2894                 0.5701

                    28                     29                     30
                     A                      A                      A
 Frequencies --  1102.0359              1142.3177              1189.5529
 Red. masses --     2.4506                 1.8329                 2.1702
 Frc consts  --     1.7535                 1.4092                 1.8093
 IR Inten    --     0.5988                 0.6606                 1.1477

                    31                     32                     33
                     A                      A                      A
 Frequencies --  1192.3463              1201.6281              1226.2818
 Red. masses --     1.9804                 1.7434                 1.3262
 Frc consts  --     1.6588                 1.4831                 1.1750
 IR Inten    --     1.7983                 2.6235                 0.3628

                    34                     35                     36
                     A                      A                      A
 Frequencies --  1288.5220              1306.4007              1326.8371
 Red. masses --     1.3954                 1.2488                 1.2987
 Frc consts  --     1.3650                 1.2557                 1.3470
 IR Inten    --     0.0554                 0.2497                 1.3812

                    37                     38                     39
                     A                      A                      A
 Frequencies --  1359.8870              1371.2008              1386.9071
 Red. masses --     1.3477                 1.3974                 1.4437
 Frc consts  --     1.4684                 1.5480                 1.6361
 IR Inten    --     0.3049                 1.7590                 0.9319

                    40                     41                     42
                     A                      A                      A
 Frequencies --  1398.3995              1406.2913              1412.1995
 Red. masses --     1.5713                 1.3269                 1.3000
 Frc consts  --     1.8104                 1.5461                 1.5276
 IR Inten    --     4.2793                 9.5947                 9.2304

                    43                     44                     45
                     A                      A                      A
 Frequencies --  1424.9181              1468.0794              1478.6508
 Red. masses --     1.2480                 1.1089                 1.1662
 Frc consts  --     1.4929                 1.4082                 1.5023
 IR Inten    --     7.2816                 3.7526                 0.3117

                    46                     47                     48
                     A                      A                      A
 Frequencies --  1482.5995              1491.5453              1499.4391
 Red. masses --     1.0819                 1.0585                 1.0492
 Frc consts  --     1.4011                 1.3874                 1.3898
 IR Inten    --     0.1442                 3.3659                 2.1654

                    49                     50                     51
                     A                      A                      A
 Frequencies --  1501.8989              1508.1272              1510.1587
 Red. masses --     1.0605                 1.0598                 1.0460
 Frc consts  --     1.4094                 1.4202                 1.4055
 IR Inten    --     6.7056                 3.0576                 5.9281

                    52                     53                     54
                     A                      A                      A
 Frequencies --  1518.9178              2978.2729              3017.2922
 Red. masses --     1.0463                 1.0696                 1.0622
 Frc consts  --     1.4223                 5.5900                 5.6977
 IR Inten    --    15.2548                27.2180                17.4677

                    55                     56                     57
                     A                      A                      A
 Frequencies --  3029.5415              3034.2057              3035.9351
 Red. masses --     1.0622                 1.0414                 1.0668
 Frc consts  --     5.7438                 5.6490                 5.7933
 IR Inten    --     2.8392                13.6438                 4.1956

                    58                     59                     60
                     A                      A                      A
 Frequencies --  3037.7954              3040.9443              3059.8180
 Red. masses --     1.0566                 1.0474                 1.0912
 Frc consts  --     5.7447                 5.7067                 6.0192
 IR Inten    --    20.6891                25.8596                 8.6414

                    61                     62                     63
                     A                      A                      A
 Frequencies --  3067.9357              3102.7747              3103.5511
 Red. masses --     1.0970                 1.0999                 1.0996
 Frc consts  --     6.0835                 6.2386                 6.2401
 IR Inten    --    50.4425                 3.7870                30.4257

                    64                     65                     66
                     A                      A                      A
 Frequencies --  3109.5086              3115.4022              3117.1842
 Red. masses --     1.1003                 1.1020                 1.1018
 Frc consts  --     6.2681                 6.3017                 6.3077
 IR Inten    --    42.8185                22.6317                29.4893

                    67                     68                     69
                     A                      A                      A
 Frequencies --  3119.8370              3163.4158              3273.9473
 Red. masses --     1.1024                 1.0531                 1.1166
 Frc consts  --     6.3218                 6.2092                 7.0514
 IR Inten    --    30.2114                10.3531                 7.9422

 - Thermochemistry -
 -------------------
 Temperature   298.150 Kelvin.  Pressure   1.00000 Atm.
 Atom     1 has atomic number  6 and mass  12.00000

 Molecular mass:   113.13303 amu.
 Principal axes and moments of inertia in atomic units:
                           1         2         3
     Eigenvalues --   633.738131607.784611832.61784
           X            0.99996   0.00782  -0.00349
           Y           -0.00781   0.99997   0.00180
           Z            0.00350  -0.00177   0.99999
 This molecule is an asymmetric top.
 Rotational symmetry number  1.
 Warning -- assumption of classical behavior for rotation
           may cause significant error
 Rotational temperatures (Kelvin)      0.13667     0.05387     0.04726
 Rotational constants (GHZ):           2.84777     1.12250     0.98479
 Zero-point vibrational energy     606976.0 (Joules/Mol)
                                  145.07074 (Kcal/Mol)
 Warning -- explicit consideration of  16 degrees of freedom as
           vibrations may cause significant error
 Vibrational temperatures:    103.61   139.20   164.06   201.23   258.91
          (Kelvin)            305.04   339.73   371.25   381.26   477.69
                              529.81   584.99   642.42   660.82   668.25
                              740.57  1148.23  1183.25  1229.51  1266.96
                             1344.72  1361.56  1389.06  1408.68  1426.65
                             1501.17  1574.51  1585.58  1643.54  1711.50
                             1715.52  1728.87  1764.34  1853.89  1879.62
                             1909.02  1956.57  1972.85  1995.45  2011.98
                             2023.34  2031.84  2050.14  2112.24  2127.45
                             2133.13  2146.00  2157.36  2160.89  2169.86
                             2172.78  2185.38  4285.07  4341.21  4358.83
                             4365.54  4368.03  4370.70  4375.24  4402.39
                             4414.07  4464.20  4465.31  4473.88  4482.36
                             4484.93  4488.74  4551.44  4710.47

 Zero-point correction=                           0.231185 (Hartree/Particle)
 Thermal correction to Energy=                    0.242300
 Thermal correction to Enthalpy=                  0.243244
 Thermal correction to Gibbs Free Energy=         0.194869
 Sum of electronic and zero-point Energies=           -314.739069
 Sum of electronic and thermal Energies=              -314.727954
 Sum of electronic and thermal Enthalpies=            -314.727010
 Sum of electronic and thermal Free Energies=         -314.775385

                     E (Thermal)             CV                S
                      KCal/Mol        Cal/Mol-Kelvin    Cal/Mol-Kelvin
 Total                  152.046             40.846            101.814
 Electronic               0.000              0.000              1.377
 Translational            0.889              2.981             40.086
 Rotational               0.889              2.981             29.014
 Vibrational            150.268             34.885             31.337
 Vibration     1          0.598              1.967              4.098
 Vibration     2          0.603              1.951              3.519
 Vibration     3          0.607              1.938              3.199
 Vibration     4          0.615              1.913              2.806
 Vibration     5          0.629              1.867              2.329
 Vibration     6          0.643              1.823              2.026
 Vibration     7          0.655              1.785              1.832
 Vibration     8          0.667              1.749              1.675
 Vibration     9          0.671              1.737              1.629
 Vibration    10          0.714              1.612              1.250
 Vibration    11          0.741              1.538              1.087
 Vibration    12          0.771              1.456              0.939
 Vibration    13          0.806              1.369              0.806
 Vibration    14          0.817              1.340              0.768
 Vibration    15          0.822              1.329              0.753
 Vibration    16          0.870              1.217              0.622

 Normal termination of Gaussian 09 at Fri May 19 04:58:24 2017.
