 Gaussian 09, Revision B.01,
 Gaussian 09:  EM64L-G09RevB.01 12-Aug-2010

 --------------------------------------------------------------
 # m062x/6-311+g(2df,2p) opt=(verytight,gdiis) freq IOP(2/16=3)
 --------------------------------------------------------------

 -------------------------------
 InChI=1S/C3H8/c1-3-2/h3H2,1-2H3
 -------------------------------
 Symbolic Z-matrix:
 Charge =  0 Multiplicity = 1

 SCF Done:  E(RM062X) =  -119.105470697     A.U. after   10 cycles
 SCF Done:  E(RM062X) =  -119.107988509     A.U. after    9 cycles
 SCF Done:  E(RM062X) =  -119.108013662     A.U. after    8 cycles
 SCF Done:  E(RM062X) =  -119.108014847     A.U. after    6 cycles
 SCF Done:  E(RM062X) =  -119.108014880     A.U. after    5 cycles
 SCF Done:  E(RM062X) =  -119.108014881     A.U. after   12 cycles
 SCF Done:  E(RM062X) =  -119.108014881     A.U. after   12 cycles
 Optimization completed.
    -- Stationary point found.
 Normal termination of Gaussian 09 at Fri Jan 20 00:04:52 2017.

 ----------------------------------------------------------------------
 #N Geom=AllCheck Guess=TCheck SCRF=Check Test GenChk RM062X/6-311+G(2d
 f,2p) Freq
 ----------------------------------------------------------------------

 InChI=1S/C3H8/c1-3-2/h3H2,1-2H3
 -------------------------------
 Redundant internal coordinates taken from checkpoint file:
 /home/r.west/Code/RMG-Py/scripts/Gau-19628.chk
 Charge =  0 Multiplicity = 1

                         Standard orientation:
 ---------------------------------------------------------------------
 Center     Atomic      Atomic             Coordinates (Angstroms)
 Number     Number       Type             X           Y           Z
 ---------------------------------------------------------------------
      1          6           0        0.000000    0.591894    0.000000
      2          6           0       -1.263847   -0.260666    0.000000
      3          6           0        1.263847   -0.260666    0.000000
      4          1           0        0.000000    1.246148   -0.874125
      5          1           0        0.000000    1.246148    0.874125
      6          1           0       -1.294685   -0.904714    0.880275
      7          1           0       -2.165130    0.351595    0.000000
      8          1           0       -1.294685   -0.904714   -0.880275
      9          1           0        2.165130    0.351595    0.000000
     10          1           0        1.294685   -0.904714   -0.880275
     11          1           0        1.294685   -0.904714    0.880275
 ---------------------------------------------------------------------

 SCF Done:  E(RM062X) =  -119.108014881     A.U. after    1 cycles

 The electronic state is 1-A.
 Alpha  occ. eigenvalues --  -10.52670 -10.51811 -10.51809  -0.87987  -0.77062
 Alpha  occ. eigenvalues --   -0.66698  -0.52854  -0.50565  -0.46194  -0.44369
 Alpha  occ. eigenvalues --   -0.39588  -0.39550  -0.38703
 Alpha virt. eigenvalues --    0.01955   0.03687   0.04089   0.04690   0.07457
 Alpha virt. eigenvalues --    0.07880   0.08097   0.09160   0.09213   0.12054
 Alpha virt. eigenvalues --    0.12131   0.14060   0.19223   0.20247   0.20544

 Mulliken atomic charges:
              1
     1  C   -0.269302
     2  C   -0.392077
     3  C   -0.392077
     4  H    0.138301
     5  H    0.138301
     6  H    0.130029
     7  H    0.128369
     8  H    0.130029
     9  H    0.128369
    10  H    0.130029
    11  H    0.130029
 Sum of Mulliken atomic charges =   0.00000

 Dipole moment (field-independent basis, Debye):
    X=              0.0000    Y=              0.0859    Z=              0.0000  Tot=              0.0859
 Quadrupole moment (field-independent basis, Debye-Ang):
   XX=            -22.3175   YY=            -22.0249   ZZ=            -21.5482
   XY=              0.0000   XZ=              0.0000   YZ=              0.0000

  Exact polarizability:  42.625   0.000  37.807   0.000   0.000  35.815
 Approx polarizability:  43.554   0.000  43.545   0.000   0.000  43.053

                     1                      2                      3
                     A                      A                      A
 Frequencies --   247.6409               303.3973               374.2133
 Red. masses --     1.0276                 1.1352                 2.0625
 Frc consts  --     0.0371                 0.0616                 0.1702
 IR Inten    --     0.0000                 0.0003                 0.0648

                     4                      5                      6
                     A                      A                      A
 Frequencies --   755.4746               891.9539               915.3461
 Red. masses --     1.0793                 2.4908                 1.1023
 Frc consts  --     0.3629                 1.1676                 0.5441
 IR Inten    --     2.7388                 0.9014                 0.0000

                     7                      8                      9
                     A                      A                      A
 Frequencies --   942.1577              1078.3702              1185.9966
 Red. masses --     1.1830                 2.3851                 1.7959
 Frc consts  --     0.6187                 1.6342                 1.4883
 IR Inten    --     2.0321                 0.6653                 1.0212

                    10                     11                     12
                     A                      A                      A
 Frequencies --  1218.4580              1324.9950              1375.9925
 Red. masses --     1.6548                 1.1236                 1.3816
 Frc consts  --     1.4475                 1.1622                 1.5413
 IR Inten    --     0.1251                 0.0000                 1.0207

                    13                     14                     15
                     A                      A                      A
 Frequencies --  1412.8633              1426.3164              1499.9094
 Red. masses --     1.3378                 1.2399                 1.0418
 Frc consts  --     1.5734                 1.4862                 1.3809
 IR Inten    --     5.8679                 4.0537                 0.0234

                    16                     17                     18
                     A                      A                      A
 Frequencies --  1502.7975              1503.6429              1520.9015
 Red. masses --     1.0379                 1.0512                 1.0404
 Frc consts  --     1.3811                 1.4003                 1.4180
 IR Inten    --     0.0000                 2.5905                14.8599

                    19                     20                     21
                     A                      A                      A
 Frequencies --  1521.3122              3054.9229              3055.2677
 Red. masses --     1.0867                 1.0355                 1.0412
 Frc consts  --     1.4818                 5.6939                 5.7267
 IR Inten    --     6.2603                26.7655                 2.9171

                    22                     23                     24
                     A                      A                      A
 Frequencies --  3062.8120              3088.1508              3118.5984
 Red. masses --     1.0551                 1.1023                 1.1026
 Frc consts  --     5.8316                 6.1937                 6.3181
 IR Inten    --    35.7338                 1.3197                 0.0000

                    25                     26                     27
                     A                      A                      A
 Frequencies --  3129.3530              3133.1581              3134.9071
 Red. masses --     1.1034                 1.1022                 1.1012
 Frc consts  --     6.3662                 6.3752                 6.3763
 IR Inten    --    69.1449                23.6457                32.3550

 - Thermochemistry -
 -------------------
 Temperature   298.150 Kelvin.  Pressure   1.00000 Atm.
 Atom     1 has atomic number  6 and mass  12.00000

 Molecular mass:    44.06260 amu.
 Principal axes and moments of inertia in atomic units:
                           1         2         3
     Eigenvalues --    61.32812 211.42701 239.44469
           X            1.00000   0.00000   0.00000
           Y            0.00000   1.00000   0.00000
           Z            0.00000   0.00000   1.00000
 This molecule is an asymmetric top.
 Rotational symmetry number  1.
 Rotational temperatures (Kelvin)      1.41230     0.40966     0.36173
 Rotational constants (GHZ):          29.42763     8.53600     7.53719
 Zero-point vibrational energy     273818.7 (Joules/Mol)
                                   65.44424 (Kcal/Mol)
 Warning -- explicit consideration of   3 degrees of freedom as
           vibrations may cause significant error
 Vibrational temperatures:    356.30   436.52   538.41  1086.96  1283.32
          (Kelvin)           1316.98  1355.55  1551.53  1706.38  1753.09
                             1906.37  1979.74  2032.79  2052.15  2158.03
                             2162.19  2163.40  2188.24  2188.83  4395.35
                             4395.84  4406.70  4443.15  4486.96  4502.44
                             4507.91  4510.43

 Zero-point correction=                           0.104292 (Hartree/Particle)
 Thermal correction to Energy=                    0.108727
 Thermal correction to Enthalpy=                  0.109671
 Thermal correction to Gibbs Free Energy=         0.078757
 Sum of electronic and zero-point Energies=           -119.003723
 Sum of electronic and thermal Energies=              -118.999288
 Sum of electronic and thermal Enthalpies=            -118.998344
 Sum of electronic and thermal Free Energies=         -119.029258

                     E (Thermal)             CV                S
                      KCal/Mol        Cal/Mol-Kelvin    Cal/Mol-Kelvin
 Total                   68.227             14.602             65.063
 Electronic               0.000              0.000              0.000
 Translational            0.889              2.981             37.275
 Rotational               0.889              2.981             22.656
 Vibrational             66.450              8.640              5.133
 Vibration     1          0.661              1.767              1.747
 Vibration     2          0.695              1.667              1.398
 Vibration     3          0.745              1.525              1.062

 Optimization completed.
    -- Stationary point found.
 Normal termination of Gaussian 09 at Fri Jan 20 00:07:46 2017.
