 Gaussian 09, Revision B.01,
 Gaussian 09:  EM64L-G09RevB.01 12-Aug-2010

 --------------------------------------------------------------
 # m062x/6-311+g(2df,2p) opt=(verytight,gdiis) freq IOP(2/16=3)
 --------------------------------------------------------------

 -----------------------------------------------
 InChI=1S/C8H17/c1-3-5-7-8-6-4-2/h1,3-8H2,2H3/u1
 -----------------------------------------------
 Symbolic Z-matrix:
 Charge =  0 Multiplicity = 2

 SCF Done:  E(UM062X) =  -314.949321551     A.U. after   13 cycles
 SCF Done:  E(UM062X) =  -314.960398055     A.U. after   12 cycles
 SCF Done:  E(UM062X) =  -314.965238534     A.U. after   12 cycles
 SCF Done:  E(UM062X) =  -314.965900053     A.U. after   11 cycles
 SCF Done:  E(UM062X) =  -314.966038054     A.U. after   10 cycles
 SCF Done:  E(UM062X) =  -314.966102135     A.U. after   10 cycles
 SCF Done:  E(UM062X) =  -314.966134992     A.U. after   10 cycles
 SCF Done:  E(UM062X) =  -314.966136559     A.U. after    9 cycles
 SCF Done:  E(UM062X) =  -314.966139000     A.U. after    9 cycles
 SCF Done:  E(UM062X) =  -314.966140798     A.U. after    9 cycles
 SCF Done:  E(UM062X) =  -314.966143474     A.U. after    7 cycles
 SCF Done:  E(UM062X) =  -314.966143502     A.U. after    6 cycles
 SCF Done:  E(UM062X) =  -314.966143493     A.U. after    5 cycles
 SCF Done:  E(UM062X) =  -314.966143491     A.U. after    3 cycles
 SCF Done:  E(UM062X) =  -314.966143494     A.U. after    4 cycles
 SCF Done:  E(UM062X) =  -314.966143491     A.U. after    4 cycles
 SCF Done:  E(UM062X) =  -314.966143492     A.U. after    4 cycles
 SCF Done:  E(UM062X) =  -314.966143492     A.U. after    2 cycles
 SCF Done:  E(UM062X) =  -314.966143492     A.U. after    1 cycles
 Optimization completed.
    -- Stationary point found.
 Normal termination of Gaussian 09 at Sat Mar 18 17:46:14 2017.

 ----------------------------------------------------------------------
 #N Geom=AllCheck Guess=TCheck SCRF=Check Test GenChk UM062X/6-311+G(2d
 f,2p) Freq
 ----------------------------------------------------------------------

 InChI=1S/C8H17/c1-3-5-7-8-6-4-2/h1,3-8H2,2H3/u1
 -----------------------------------------------
 Redundant internal coordinates taken from checkpoint file:
 /gss_gpfs_scratch/westgroup/rwest-autotst-1/Gau-6444.chk
 Charge =  0 Multiplicity = 2

                         Standard orientation:
 ---------------------------------------------------------------------
 Center     Atomic      Atomic             Coordinates (Angstroms)
 Number     Number       Type             X           Y           Z
 ---------------------------------------------------------------------
      1          6           0        1.849347   -0.340947    0.011022
      2          6           0       -0.693816   -0.426414    0.013390
      3          6           0        0.549678    0.454094   -0.021407
      4          6           0       -1.993066    0.368037   -0.024629
      5          6           0        3.095093    0.537055   -0.020453
      6          6           0       -3.236677   -0.517494    0.013253
      7          6           0        4.384463   -0.274872    0.014703
      8          6           0       -4.506850    0.252279   -0.009715
      9          1           0        3.069575    1.225839    0.828094
     10          1           0        3.073933    1.157989   -0.920005
     11          1           0       -2.019046    0.984700   -0.927438
     12          1           0       -2.021921    1.060472    0.822261
     13          1           0        1.870112   -0.964546    0.910629
     14          1           0        1.873049   -1.030970   -0.838604
     15          1           0       -0.669283   -1.119853   -0.833268
     16          1           0       -0.674024   -1.045591    0.915956
     17          1           0        0.528304    1.075611   -0.922172
     18          1           0        0.527259    1.145185    0.827155
     19          1           0       -3.190322   -1.145324    0.915921
     20          1           0       -3.211450   -1.221747   -0.824450
     21          1           0        4.440183   -0.950141   -0.840380
     22          1           0        4.433408   -0.883333    0.919006
     23          1           0        5.265637    0.365532   -0.006030
     24          1           0       -4.543299    1.256510    0.387870
     25          1           0       -5.441144   -0.220756   -0.271521
 ---------------------------------------------------------------------

 SCF Done:  E(UM062X) =  -314.966143492     A.U. after    1 cycles

 The electronic state is 2-A.
 Alpha  occ. eigenvalues --  -10.53639 -10.53299 -10.52708 -10.52568 -10.52564
 Alpha  occ. eigenvalues --  -10.52477 -10.52409 -10.51868  -0.91639  -0.89102
 Alpha  occ. eigenvalues --   -0.84816  -0.79129  -0.72788  -0.67453  -0.66115
 Alpha  occ. eigenvalues --   -0.65532  -0.55959  -0.53491  -0.51585  -0.49672
 Alpha  occ. eigenvalues --   -0.48952  -0.48663  -0.45823  -0.44499  -0.42565
 Alpha  occ. eigenvalues --   -0.42062  -0.40584  -0.39556  -0.38485  -0.38373
 Alpha  occ. eigenvalues --   -0.37996  -0.36046  -0.25566
 Alpha virt. eigenvalues --    0.01909   0.02598   0.02779   0.03584   0.03742
 Alpha virt. eigenvalues --    0.04253   0.05453   0.05689   0.06497   0.06621
 Alpha virt. eigenvalues --    0.06697   0.07823   0.08331   0.08819   0.08997

  Beta  occ. eigenvalues --  -10.53363 -10.52952 -10.52691 -10.52568 -10.52563
  Beta  occ. eigenvalues --  -10.52478 -10.52409 -10.51868  -0.91483  -0.88699
  Beta  occ. eigenvalues --   -0.84162  -0.78262  -0.71783  -0.66565  -0.66000
  Beta  occ. eigenvalues --   -0.64686  -0.55842  -0.53147  -0.51019  -0.49298
  Beta  occ. eigenvalues --   -0.48650  -0.48153  -0.45413  -0.43984  -0.42184
  Beta  occ. eigenvalues --   -0.41838  -0.40252  -0.39451  -0.38377  -0.38351
  Beta  occ. eigenvalues --   -0.37988  -0.35899
  Beta virt. eigenvalues --   -0.02413   0.01738   0.02304   0.02712   0.03535
  Beta virt. eigenvalues --    0.03747   0.04257   0.05424   0.05639   0.06460
  Beta virt. eigenvalues --    0.06591   0.06742   0.07755   0.08243   0.08269

 Mulliken atomic charges:
              1
     1  C   -0.341762
     2  C   -0.268049
     3  C   -0.224217
     4  C   -0.347315
     5  C   -0.234896
     6  C   -0.231941
     7  C   -0.591614
     8  C   -0.503644
     9  H    0.155271
    10  H    0.155456
    11  H    0.175264
    12  H    0.171241
    13  H    0.167765
    14  H    0.167816
    15  H    0.169533
    16  H    0.169182
    17  H    0.170238
    18  H    0.169732
    19  H    0.150205
    20  H    0.153555
    21  H    0.137049
    22  H    0.136993
    23  H    0.142518
    24  H    0.172057
    25  H    0.179562
 Sum of Mulliken atomic charges =   0.00000

 Dipole moment (field-independent basis, Debye):
    X=              0.2707    Y=             -0.1485    Z=              0.1090  Tot=              0.3274
 Quadrupole moment (field-independent basis, Debye-Ang):
   XX=            -57.3979   YY=            -55.2492   ZZ=            -54.6632
   XY=              1.2077   XZ=             -0.3354   YZ=              0.6287

  Exact polarizability: 124.831  -1.779  89.327   0.274  -0.189  82.565
 Approx polarizability: 111.966  -1.087 111.346   0.343  -0.095 107.874

                     1                      2                      3
                     A                      A                      A
 Frequencies --    44.8182                75.5807                81.5247
 Red. masses --     2.7758                 2.7973                 1.8805
 Frc consts  --     0.0033                 0.0094                 0.0074
 IR Inten    --     0.0878                 0.0318                 0.0330

                     4                      5                      6
                     A                      A                      A
 Frequencies --   113.5201               148.0022               162.9606
 Red. masses --     2.3175                 1.8391                 2.0295
 Frc consts  --     0.0176                 0.0237                 0.0318
 IR Inten    --     0.0329                 0.0132                 0.0232

                     7                      8                      9
                     A                      A                      A
 Frequencies --   187.1106               198.8822               259.2989
 Red. masses --     1.1775                 2.1673                 1.1142
 Frc consts  --     0.0243                 0.0505                 0.0441
 IR Inten    --     0.2197                 0.0767                 0.0019

                    10                     11                     12
                     A                      A                      A
 Frequencies --   281.0634               340.3955               455.7381
 Red. masses --     4.0524                 2.5348                 1.4808
 Frc consts  --     0.1886                 0.1730                 0.1812
 IR Inten    --     0.0067                 0.9600                33.4596

                    13                     14                     15
                     A                      A                      A
 Frequencies --   477.3039               489.8996               725.6996
 Red. masses --     3.0317                 2.1042                 1.0882
 Frc consts  --     0.4069                 0.2975                 0.3376
 IR Inten    --     0.9388                16.4424                 1.6683

                    16                     17                     18
                     A                      A                      A
 Frequencies --   731.4561               755.6681               819.7780
 Red. masses --     1.0722                 1.1504                 1.2285
 Frc consts  --     0.3380                 0.3870                 0.4864
 IR Inten    --     2.8635                 0.3491                 0.8736

                    19                     20                     21
                     A                      A                      A
 Frequencies --   887.5795               912.7642               930.1440
 Red. masses --     1.4338                 1.7099                 1.4347
 Frc consts  --     0.6655                 0.8394                 0.7314
 IR Inten    --     1.0178                 1.0766                 0.0960

                    22                     23                     24
                     A                      A                      A
 Frequencies --  1009.4138              1028.2963              1050.3324
 Red. masses --     1.4853                 2.3027                 3.4359
 Frc consts  --     0.8916                 1.4345                 2.2333
 IR Inten    --     0.3484                 0.0396                 0.6274

                    25                     26                     27
                     A                      A                      A
 Frequencies --  1075.9542              1086.7986              1094.4572
 Red. masses --     1.7076                 2.1002                 1.9457
 Frc consts  --     1.1647                 1.4615                 1.3732
 IR Inten    --     0.8753                 0.1828                 0.0890

                    28                     29                     30
                     A                      A                      A
 Frequencies --  1105.5840              1126.2809              1168.2599
 Red. masses --     2.0944                 1.6773                 2.6595
 Frc consts  --     1.5083                 1.2536                 2.1386
 IR Inten    --     1.4118                 1.2804                 0.4972

                    31                     32                     33
                     A                      A                      A
 Frequencies --  1217.2141              1251.0409              1265.5851
 Red. masses --     1.6958                 1.3196                 1.3427
 Frc consts  --     1.4803                 1.2168                 1.2671
 IR Inten    --     0.0040                 0.3640                 0.1231

                    34                     35                     36
                     A                      A                      A
 Frequencies --  1300.4910              1311.2135              1329.5124
 Red. masses --     1.3010                 1.2223                 1.0610
 Frc consts  --     1.2964                 1.2382                 1.1050
 IR Inten    --     0.2579                 0.2860                 0.0616

                    37                     38                     39
                     A                      A                      A
 Frequencies --  1340.6985              1345.7410              1352.7337
 Red. masses --     1.1096                 1.0924                 1.3648
 Frc consts  --     1.1751                 1.1657                 1.4714
 IR Inten    --     0.1529                 0.3123                 1.0563

                    40                     41                     42
                     A                      A                      A
 Frequencies --  1390.5545              1412.7432              1414.6712
 Red. masses --     1.5030                 1.6280                 1.4968
 Frc consts  --     1.7123                 1.9144                 1.7649
 IR Inten    --     0.3310                 0.1553                 2.7641

                    43                     44                     45
                     A                      A                      A
 Frequencies --  1419.0076              1470.1380              1473.4748
 Red. masses --     1.5253                 1.1537                 1.1151
 Frc consts  --     1.8096                 1.4691                 1.4264
 IR Inten    --     0.9854                 2.6238                 0.7313

                    46                     47                     48
                     A                      A                      A
 Frequencies --  1489.3896              1490.2197              1495.1708
 Red. masses --     1.0770                 1.0762                 1.0682
 Frc consts  --     1.4076                 1.4082                 1.4069
 IR Inten    --     0.1164                 0.0589                 0.4403

                    49                     50                     51
                     A                      A                      A
 Frequencies --  1502.4834              1509.8406              1512.6618
 Red. masses --     1.0790                 1.0533                 1.0803
 Frc consts  --     1.4351                 1.4146                 1.4563
 IR Inten    --     1.4188                 6.0948                 2.4546

                    52                     53                     54
                     A                      A                      A
 Frequencies --  1519.0320              2978.6316              3025.2426
 Red. masses --     1.0950                 1.0698                 1.0612
 Frc consts  --     1.4886                 5.5922                 5.7222
 IR Inten    --    13.0742                18.2983                 0.5117

                    55                     56                     57
                     A                      A                      A
 Frequencies --  3026.8726              3032.0122              3037.0183
 Red. masses --     1.0612                 1.0709                 1.0701
 Frc consts  --     5.7287                 5.8002                 5.8154
 IR Inten    --     0.1481                 1.7051                 6.2880

                    58                     59                     60
                     A                      A                      A
 Frequencies --  3043.7581              3046.4941              3051.7339
 Red. masses --     1.0660                 1.0588                 1.0395
 Frc consts  --     5.8186                 5.7901                 5.7040
 IR Inten    --    17.6407                76.8952                53.7424

                    61                     62                     63
                     A                      A                      A
 Frequencies --  3055.1555              3061.8335              3075.3041
 Red. masses --     1.0969                 1.0997                 1.1026
 Frc consts  --     6.0322                 6.0741                 6.1440
 IR Inten    --     0.4012                 0.2784                 0.0734

                    64                     65                     66
                     A                      A                      A
 Frequencies --  3087.2720              3095.3100              3118.4639
 Red. masses --     1.1041                 1.1042                 1.1027
 Frc consts  --     6.2001                 6.2333                 6.3183
 IR Inten    --     0.1774                93.7722                47.7403

                    67                     68                     69
                     A                      A                      A
 Frequencies --  3131.1281              3160.2830              3261.5497
 Red. masses --     1.1015                 1.0512                 1.1189
 Frc consts  --     6.3626                 6.1856                 7.0128
 IR Inten    --    28.9610                14.9795                 8.7614

 - Thermochemistry -
 -------------------
 Temperature   298.150 Kelvin.  Pressure   1.00000 Atm.
 Atom     1 has atomic number  6 and mass  12.00000

 Molecular mass:   113.13303 amu.
 Principal axes and moments of inertia in atomic units:
                           1         2         3
     Eigenvalues --   161.523893567.038173649.49185
           X            1.00000  -0.00111  -0.00032
           Y            0.00111   0.99991   0.01356
           Z            0.00030  -0.01356   0.99991
 This molecule is an asymmetric top.
 Rotational symmetry number  1.
 Rotational temperatures (Kelvin)      0.53623     0.02428     0.02373
 Rotational constants (GHZ):          11.17322     0.50595     0.49452
 Zero-point vibrational energy     609654.3 (Joules/Mol)
                                  145.71088 (Kcal/Mol)
 Warning -- explicit consideration of  14 degrees of freedom as
           vibrations may cause significant error
 Vibrational temperatures:     64.48   108.74   117.30   163.33   212.94
          (Kelvin)            234.46   269.21   286.15   373.07   404.39
                              489.75   655.70   686.73   704.86  1044.12
                             1052.40  1087.24  1179.48  1277.03  1313.26
                             1338.27  1452.32  1479.49  1511.19  1548.06
                             1563.66  1574.68  1590.69  1620.47  1680.86
                             1751.30  1799.97  1820.89  1871.11  1886.54
                             1912.87  1928.96  1936.22  1946.28  2000.70
                             2032.62  2035.39  2041.63  2115.20  2120.00
                             2142.90  2144.09  2151.21  2161.74  2172.32
                             2176.38  2185.55  4285.58  4352.64  4354.99
                             4362.38  4369.59  4379.28  4383.22  4390.76
                             4395.68  4405.29  4424.67  4441.89  4453.46
                             4486.77  4504.99  4546.94  4692.64

 Zero-point correction=                           0.232205 (Hartree/Particle)
 Thermal correction to Energy=                    0.243523
 Thermal correction to Enthalpy=                  0.244467
 Thermal correction to Gibbs Free Energy=         0.194428
 Sum of electronic and zero-point Energies=           -314.733938
 Sum of electronic and thermal Energies=              -314.722620
 Sum of electronic and thermal Enthalpies=            -314.721676
 Sum of electronic and thermal Free Energies=         -314.771716

                     E (Thermal)             CV                S
                      KCal/Mol        Cal/Mol-Kelvin    Cal/Mol-Kelvin
 Total                  152.813             39.740            105.317
 Electronic               0.000              0.000              1.377
 Translational            0.889              2.981             40.086
 Rotational               0.889              2.981             29.132
 Vibrational            151.036             33.778             34.722
 Vibration     1          0.595              1.979              5.034
 Vibration     2          0.599              1.965              4.002
 Vibration     3          0.600              1.962              3.854
 Vibration     4          0.607              1.938              3.208
 Vibration     5          0.617              1.905              2.698
 Vibration     6          0.623              1.888              2.515
 Vibration     7          0.632              1.858              2.256
 Vibration     8          0.637              1.841              2.143
 Vibration     9          0.668              1.747              1.666
 Vibration    10          0.681              1.709              1.527
 Vibration    11          0.720              1.595              1.210
 Vibration    12          0.814              1.348              0.779
 Vibration    13          0.834              1.300              0.717
 Vibration    14          0.846              1.272              0.684

 Normal termination of Gaussian 09 at Sat Mar 18 19:13:16 2017.
