 Gaussian 09, Revision B.01,
 Gaussian 09:  EM64L-G09RevB.01 12-Aug-2010

 --------------------------------------------------------------
 # m062x/6-311+g(2df,2p) opt=(verytight,gdiis) freq IOP(2/16=3)
 --------------------------------------------------------------

 ----------------------------------------------------
 InChI=1S/C8H15/c1-4-5-6-7-8(2)3/h6,8H,4-5H2,1-3H3/u7
 ----------------------------------------------------
 Symbolic Z-matrix:
 Charge =  0 Multiplicity = 2

 SCF Done:  E(UM062X) =  -313.720843292     A.U. after   15 cycles
 SCF Done:  E(UM062X) =  -313.732817068     A.U. after   14 cycles
 SCF Done:  E(UM062X) =  -313.733896052     A.U. after   13 cycles
 SCF Done:  E(UM062X) =  -313.734026554     A.U. after   12 cycles
 SCF Done:  E(UM062X) =  -313.734049271     A.U. after   11 cycles
 SCF Done:  E(UM062X) =  -313.734052966     A.U. after   10 cycles
 SCF Done:  E(UM062X) =  -313.734054774     A.U. after   10 cycles
 SCF Done:  E(UM062X) =  -313.734055315     A.U. after    9 cycles
 SCF Done:  E(UM062X) =  -313.734055469     A.U. after    9 cycles
 SCF Done:  E(UM062X) =  -313.734055471     A.U. after    8 cycles
 SCF Done:  E(UM062X) =  -313.734055466     A.U. after    2 cycles
 SCF Done:  E(UM062X) =  -313.734055464     A.U. after    3 cycles
 SCF Done:  E(UM062X) =  -313.734055465     A.U. after    2 cycles
 SCF Done:  E(UM062X) =  -313.734055456     A.U. after    6 cycles
 SCF Done:  E(UM062X) =  -313.734055464     A.U. after    6 cycles
 SCF Done:  E(UM062X) =  -313.734055463     A.U. after    3 cycles
 SCF Done:  E(UM062X) =  -313.734055464     A.U. after    3 cycles
 SCF Done:  E(UM062X) =  -313.734055463     A.U. after    2 cycles
 SCF Done:  E(UM062X) =  -313.734055464     A.U. after    2 cycles
 Optimization completed.
    -- Stationary point found.
 Normal termination of Gaussian 09 at Sun Jul 30 17:28:52 2017.

 ----------------------------------------------------------------------
 #N Geom=AllCheck Guess=TCheck SCRF=Check Test GenChk UM062X/6-311+G(2d
 f,2p) Freq
 ----------------------------------------------------------------------

 InChI=1S/C8H15/c1-4-5-6-7-8(2)3/h6,8H,4-5H2,1-3H3/u7
 ----------------------------------------------------
 Redundant internal coordinates taken from checkpoint file:
 /gss_gpfs_scratch/harms.n/bioTST/Gau-13786.chk
 Charge =  0 Multiplicity = 2

                         Standard orientation:
 ---------------------------------------------------------------------
 Center     Atomic      Atomic             Coordinates (Angstroms)
 Number     Number       Type             X           Y           Z
 ---------------------------------------------------------------------
      1          6           0        2.231269    0.054650    0.286133
      2          6           0       -2.651084    0.439960    0.252527
      3          6           0       -1.644512   -0.657930   -0.093636
      4          6           0        2.645655    1.457174   -0.167286
      5          6           0        3.143355   -1.009165   -0.330932
      6          6           0       -4.014466    0.190609   -0.380627
      7          6           0       -0.313651   -0.446250    0.574602
      8          6           0        0.816115   -0.208717   -0.037463
      9          1           0        2.324141    0.000733    1.380538
     10          1           0       -2.251433    1.400325   -0.079906
     11          1           0       -2.752365    0.505960    1.338956
     12          1           0       -1.502213   -0.700750   -1.174934
     13          1           0       -2.055361   -1.624227    0.214966
     14          1           0       -3.932441    0.134433   -1.467051
     15          1           0       -4.437612   -0.752549   -0.031694
     16          1           0       -4.719981    0.984623   -0.138614
     17          1           0        2.549889    1.543597   -1.250536
     18          1           0        3.684253    1.652673    0.100758
     19          1           0        2.017045    2.219301    0.290678
     20          1           0        3.063361   -0.983968   -1.418570
     21          1           0        4.182888   -0.822490   -0.060233
     22          1           0        2.867901   -2.007048    0.006514
     23          1           0       -0.314155   -0.472605    1.669219
 ---------------------------------------------------------------------

 SCF Done:  E(UM062X) =  -313.734055464     A.U. after    1 cycles

 The electronic state is 2-A.
 Alpha  occ. eigenvalues --  -10.55309 -10.54780 -10.53228 -10.53179 -10.52791
 Alpha  occ. eigenvalues --  -10.52499 -10.52491 -10.51973  -0.92718  -0.89645
 Alpha  occ. eigenvalues --   -0.84164  -0.77859  -0.76584  -0.69114  -0.66083
 Alpha  occ. eigenvalues --   -0.59997  -0.55220  -0.52823  -0.51262  -0.49882
 Alpha  occ. eigenvalues --   -0.48339  -0.46887  -0.45120  -0.43960  -0.42968
 Alpha  occ. eigenvalues --   -0.41355  -0.40989  -0.40046  -0.39303  -0.38727
 Alpha  occ. eigenvalues --   -0.31005  -0.26734
 Alpha virt. eigenvalues --    0.01797   0.02254   0.03345   0.03438   0.04148
 Alpha virt. eigenvalues --    0.04219   0.05000   0.05138   0.06531   0.06769
 Alpha virt. eigenvalues --    0.07356   0.07758   0.08116   0.08259   0.08912

  Beta  occ. eigenvalues --  -10.55297 -10.53944 -10.53290 -10.53120 -10.52799
  Beta  occ. eigenvalues --  -10.52484 -10.52473 -10.51973  -0.91623  -0.89501
  Beta  occ. eigenvalues --   -0.83508  -0.77792  -0.75777  -0.68826  -0.65925
  Beta  occ. eigenvalues --   -0.57864  -0.54677  -0.52484  -0.50757  -0.49584
  Beta  occ. eigenvalues --   -0.47991  -0.46750  -0.45098  -0.43424  -0.42609
  Beta  occ. eigenvalues --   -0.40769  -0.40521  -0.40017  -0.39029  -0.38610
  Beta  occ. eigenvalues --   -0.29732
  Beta virt. eigenvalues --   -0.05164   0.02002   0.02176   0.02910   0.03253
  Beta virt. eigenvalues --    0.04135   0.04376   0.04897   0.05401   0.06371
  Beta virt. eigenvalues --    0.06417   0.07010   0.07405   0.08083   0.08420

 Mulliken atomic charges:
              1
     1  C    0.078849
     2  C   -0.269040
     3  C   -0.262812
     4  C   -0.530017
     5  C   -0.506371
     6  C   -0.585605
     7  C    0.058442
     8  C   -0.226641
     9  H    0.150817
    10  H    0.163320
    11  H    0.151931
    12  H    0.151145
    13  H    0.158021
    14  H    0.139295
    15  H    0.137586
    16  H    0.135943
    17  H    0.161208
    18  H    0.145917
    19  H    0.149159
    20  H    0.159381
    21  H    0.145903
    22  H    0.149529
    23  H    0.144038
 Sum of Mulliken atomic charges =   0.00000

 Dipole moment (field-independent basis, Debye):
    X=              0.2552    Y=              0.1196    Z=              0.5633  Tot=              0.6298
 Quadrupole moment (field-independent basis, Debye-Ang):
   XX=            -50.4556   YY=            -54.3467   ZZ=            -52.6738
   XY=              0.5199   XZ=              0.2273   YZ=             -0.4045

  Exact polarizability: 130.993   2.401  87.762  -3.640  -0.208  85.252
 Approx polarizability: 126.648   3.914 104.779  -6.256  -1.193 109.873

                     1                      2                      3
                     A                      A                      A
 Frequencies --    44.6850                67.8346                75.2687
 Red. masses --     2.4204                 2.4663                 2.2817
 Frc consts  --     0.0028                 0.0067                 0.0076
 IR Inten    --     0.2236                 0.1120                 0.2897

                     4                      5                      6
                     A                      A                      A
 Frequencies --   122.9184               162.4005               201.8352
 Red. masses --     2.8651                 2.1312                 1.0416
 Frc consts  --     0.0255                 0.0331                 0.0250
 IR Inten    --     1.2411                 0.5794                 0.0297

                     7                      8                      9
                     A                      A                      A
 Frequencies --   247.4328               254.2456               277.8187
 Red. masses --     1.1843                 1.1864                 2.1953
 Frc consts  --     0.0427                 0.0452                 0.0998
 IR Inten    --     0.2143                 0.2750                 0.4346

                    10                     11                     12
                     A                      A                      A
 Frequencies --   292.6678               390.0735               442.0786
 Red. masses --     2.2963                 2.3901                 2.5377
 Frc consts  --     0.1159                 0.2143                 0.2922
 IR Inten    --     0.1753                 0.7356                 2.2638

                    13                     14                     15
                     A                      A                      A
 Frequencies --   475.0756               517.2205               742.7236
 Red. masses --     3.1883                 3.1632                 1.1183
 Frc consts  --     0.4240                 0.4986                 0.3635
 IR Inten    --     8.2875                 2.1602                 2.3022

                    16                     17                     18
                     A                      A                      A
 Frequencies --   793.0534               828.5897               885.7521
 Red. masses --     1.5490                 2.2108                 1.4236
 Frc consts  --     0.5740                 0.8943                 0.6581
 IR Inten    --     2.7742                 3.5108                 2.7415

                    19                     20                     21
                     A                      A                      A
 Frequencies --   908.9973               930.4057               947.1094
 Red. masses --     1.6781                 1.1420                 2.0339
 Frc consts  --     0.8170                 0.5824                 1.0749
 IR Inten    --     6.1466                 1.4215                 4.1693

                    22                     23                     24
                     A                      A                      A
 Frequencies --   972.7818              1034.7412              1068.5719
 Red. masses --     1.4927                 2.0368                 1.9355
 Frc consts  --     0.8322                 1.2849                 1.3021
 IR Inten    --     0.0887                 5.1810                 2.5359

                    25                     26                     27
                     A                      A                      A
 Frequencies --  1104.5204              1120.4238              1133.2318
 Red. masses --     1.8514                 2.1039                 2.2079
 Frc consts  --     1.3308                 1.5561                 1.6705
 IR Inten    --     0.8974                 1.2490                 1.3165

                    28                     29                     30
                     A                      A                      A
 Frequencies --  1156.6642              1200.3582              1236.2311
 Red. masses --     2.0243                 1.7612                 1.3870
 Frc consts  --     1.5957                 1.4951                 1.2489
 IR Inten    --     1.7127                 1.8906                 3.5673

                    31                     32                     33
                     A                      A                      A
 Frequencies --  1273.2584              1304.2617              1320.2534
 Red. masses --     1.2542                 1.3539                 1.4123
 Frc consts  --     1.1979                 1.3570                 1.4504
 IR Inten    --     7.7901                 0.1375                 1.3540

                    34                     35                     36
                     A                      A                      A
 Frequencies --  1325.5521              1353.4844              1388.7023
 Red. masses --     1.1096                 1.5208                 1.5918
 Frc consts  --     1.1487                 1.6415                 1.8087
 IR Inten    --     1.0452                 5.2790                 0.5737

                    37                     38                     39
                     A                      A                      A
 Frequencies --  1396.9864              1414.4686              1417.2793
 Red. masses --     1.2422                 1.2659                 1.2312
 Frc consts  --     1.4283                 1.4922                 1.4571
 IR Inten    --     6.6874                 2.5374                 4.2541

                    40                     41                     42
                     A                      A                      A
 Frequencies --  1483.0610              1489.1268              1492.0508
 Red. masses --     1.0852                 1.0427                 1.0466
 Frc consts  --     1.4064                 1.3623                 1.3727
 IR Inten    --     2.5181                 2.6993                 0.8711

                    43                     44                     45
                     A                      A                      A
 Frequencies --  1497.8999              1501.6148              1505.8625
 Red. masses --     1.0573                 1.0452                 1.0412
 Frc consts  --     1.3977                 1.3885                 1.3911
 IR Inten    --     0.7870                 8.5313                 7.5733

                    46                     47                     48
                     A                      A                      A
 Frequencies --  1512.8980              1513.4547              1783.3654
 Red. masses --     1.0728                 1.0615                 9.6641
 Frc consts  --     1.4467                 1.4326                18.1089
 IR Inten    --     5.3222                12.2749                 3.1058

                    49                     50                     51
                     A                      A                      A
 Frequencies --  2990.7003              3032.3639              3036.1423
 Red. masses --     1.0808                 1.0692                 1.0744
 Frc consts  --     5.6957                 5.7927                 5.8353
 IR Inten    --    15.9095                16.4071                11.9719

                    52                     53                     54
                     A                      A                      A
 Frequencies --  3046.4977              3047.1036              3048.4977
 Red. masses --     1.0340                 1.0401                 1.0348
 Frc consts  --     5.6544                 5.6900                 5.6662
 IR Inten    --    19.4208                19.6181                22.4359

                    55                     56                     57
                     A                      A                      A
 Frequencies --  3051.0495              3079.7712              3098.5074
 Red. masses --     1.0586                 1.0968                 1.1037
 Frc consts  --     5.8062                 6.1295                 6.2430
 IR Inten    --    38.3957                 4.6533                11.3229

                    58                     59                     60
                     A                      A                      A
 Frequencies --  3119.6787              3120.0214              3123.2597
 Red. masses --     1.1025                 1.1030                 1.1028
 Frc consts  --     6.3218                 6.3261                 6.3384
 IR Inten    --    30.8949                 1.8550                31.9016

                    61                     62                     63
                     A                      A                      A
 Frequencies --  3123.4423              3128.4956              3132.5196
 Red. masses --     1.1023                 1.1035                 1.1029
 Frc consts  --     6.3360                 6.3635                 6.3764
 IR Inten    --    38.6998                17.7722                19.7962

 - Thermochemistry -
 -------------------
 Temperature   298.150 Kelvin.  Pressure   1.00000 Atm.
 Atom     1 has atomic number  6 and mass  12.00000

 Molecular mass:   111.11738 amu.
 Principal axes and moments of inertia in atomic units:
                           1         2         3
     Eigenvalues --   338.165122668.125912841.39191
           X            1.00000   0.00066   0.00038
           Y           -0.00067   0.99999   0.00511
           Z           -0.00037  -0.00511   0.99999
 This molecule is an asymmetric top.
 Rotational symmetry number  1.
 Rotational temperatures (Kelvin)      0.25613     0.03246     0.03048
 Rotational constants (GHZ):           5.33686     0.67641     0.63516
 Zero-point vibrational energy     549010.2 (Joules/Mol)
                                  131.21659 (Kcal/Mol)
 Warning -- explicit consideration of  14 degrees of freedom as
           vibrations may cause significant error
 Vibrational temperatures:     64.29    97.60   108.29   176.85   233.66
          (Kelvin)            290.40   356.00   365.80   399.72   421.08
                              561.23   636.05   683.53   744.16  1068.61
                             1141.03  1192.15  1274.40  1307.84  1338.64
                             1362.68  1399.61  1488.76  1537.43  1589.16
                             1612.04  1630.47  1664.18  1727.05  1778.66
                             1831.93  1876.54  1899.55  1907.17  1947.36
                             1998.03  2009.95  2035.10  2039.15  2133.79
                             2142.52  2146.73  2155.14  2160.49  2166.60
                             2176.72  2177.52  2565.86  4302.95  4362.89
                             4368.33  4383.23  4384.10  4386.10  4389.77
                             4431.10  4458.06  4488.52  4489.01  4493.67
                             4493.93  4501.20  4506.99

 Zero-point correction=                           0.209107 (Hartree/Particle)
 Thermal correction to Energy=                    0.219927
 Thermal correction to Enthalpy=                  0.220871
 Thermal correction to Gibbs Free Energy=         0.171768
 Sum of electronic and zero-point Energies=           -313.524949
 Sum of electronic and thermal Energies=              -313.514129
 Sum of electronic and thermal Enthalpies=            -313.513185
 Sum of electronic and thermal Free Energies=         -313.562287

                     E (Thermal)             CV                S
                      KCal/Mol        Cal/Mol-Kelvin    Cal/Mol-Kelvin
 Total                  138.006             37.990            103.344
 Electronic               0.000              0.000              1.377
 Translational            0.889              2.981             40.032
 Rotational               0.889              2.981             29.329
 Vibrational            136.229             32.029             32.606
 Vibration     1          0.595              1.980              5.040
 Vibration     2          0.598              1.970              4.215
 Vibration     3          0.599              1.966              4.011
 Vibration     4          0.610              1.930              3.054
 Vibration     5          0.623              1.889              2.522
 Vibration     6          0.639              1.837              2.116
 Vibration     7          0.661              1.767              1.749
 Vibration     8          0.665              1.756              1.701
 Vibration     9          0.679              1.715              1.547
 Vibration    10          0.688              1.687              1.458
 Vibration    11          0.758              1.491              1.000
 Vibration    12          0.802              1.378              0.820
 Vibration    13          0.832              1.305              0.723
 Vibration    14          0.872              1.212              0.616

 Normal termination of Gaussian 09 at Sun Jul 30 18:48:10 2017.
