 Gaussian 09, Revision B.01,
 Gaussian 09:  EM64L-G09RevB.01 12-Aug-2010

 --------------------------------------------------------------
 # m062x/6-311+g(2df,2p) opt=(verytight,gdiis) freq IOP(2/16=3)
 --------------------------------------------------------------

 --------------------------------------------------
 InChI=1S/C7H13/c1-7-5-3-2-4-6-7/h2,7H,3-6H2,1H3/u2
 --------------------------------------------------
 Symbolic Z-matrix:
 Charge =  0 Multiplicity = 2

 SCF Done:  E(UM062X) =  -274.458714422     A.U. after   14 cycles
 SCF Done:  E(UM062X) =  -274.467368025     A.U. after   12 cycles
 SCF Done:  E(UM062X) =  -274.472230480     A.U. after   13 cycles
 SCF Done:  E(UM062X) =  -274.472853384     A.U. after   15 cycles
 SCF Done:  E(UM062X) =  -274.473024212     A.U. after   15 cycles
 SCF Done:  E(UM062X) =  -274.473082540     A.U. after   15 cycles
 SCF Done:  E(UM062X) =  -274.473110608     A.U. after   15 cycles
 SCF Done:  E(UM062X) =  -274.473111786     A.U. after   15 cycles
 SCF Done:  E(UM062X) =  -274.473111826     A.U. after    7 cycles
 SCF Done:  E(UM062X) =  -274.473111827     A.U. after   15 cycles
 SCF Done:  E(UM062X) =  -274.473051201     A.U. after    8 cycles
 SCF Done:  E(UM062X) =  -274.473054555     A.U. after   10 cycles
 SCF Done:  E(UM062X) =  -274.473052498     A.U. after    9 cycles
 SCF Done:  E(UM062X) =  -274.473055009     A.U. after    9 cycles
 SCF Done:  E(UM062X) =  -274.473036677     A.U. after   10 cycles
 SCF Done:  E(UM062X) =  -274.473055256     A.U. after   10 cycles
 SCF Done:  E(UM062X) =  -274.473055257     A.U. after    7 cycles
 SCF Done:  E(UM062X) =  -274.473055251     A.U. after    5 cycles
 SCF Done:  E(UM062X) =  -274.473055252     A.U. after    5 cycles
 Optimization completed.
    -- Stationary point found.
 Normal termination of Gaussian 09 at Tue Mar 14 07:30:29 2017.

 ----------------------------------------------------------------------
 #N Geom=AllCheck Guess=TCheck SCRF=Check Test GenChk UM062X/6-311+G(2d
 f,2p) Freq
 ----------------------------------------------------------------------

 InChI=1S/C7H13/c1-7-5-3-2-4-6-7/h2,7H,3-6H2,1H3/u2
 --------------------------------------------------
 Redundant internal coordinates taken from checkpoint file:
 /gss_gpfs_scratch/westgroup/rwest-autotst-1/Gau-1147.chk
 Charge =  0 Multiplicity = 2

                         Standard orientation:
 ---------------------------------------------------------------------
 Center     Atomic      Atomic             Coordinates (Angstroms)
 Number     Number       Type             X           Y           Z
 ---------------------------------------------------------------------
      1          6           0       -0.543383    0.854386    0.000000
      2          6           0        0.138008    0.303960    1.253216
      3          6           0        0.138008    0.303960   -1.253216
      4          6           0        0.138008   -1.229606    1.277171
      5          6           0        0.138008   -1.229606   -1.277171
      6          6           0       -0.544613    2.377976    0.000000
      7          6           0        0.661089   -1.790735    0.000000
      8          1           0       -1.582937    0.503054    0.000000
      9          1           0       -0.353336    0.693832    2.147490
     10          1           0        1.171996    0.663857    1.272610
     11          1           0        1.171996    0.663857   -1.272610
     12          1           0       -0.353336    0.693832   -2.147490
     13          1           0        0.708499   -1.599907    2.129475
     14          1           0       -0.899555   -1.566580    1.431404
     15          1           0       -0.899555   -1.566580   -1.431404
     16          1           0        0.708499   -1.599907   -2.129475
     17          1           0       -1.046793    2.774296   -0.883338
     18          1           0       -1.046793    2.774296    0.883338
     19          1           0        0.479879    2.756908    0.000000
     20          1           0        1.190695   -2.732963    0.000000
 ---------------------------------------------------------------------

 SCF Done:  E(UM062X) =  -274.473055252     A.U. after    1 cycles

 The electronic state is 2-A'.
 Alpha  occ. eigenvalues --  -10.53455 -10.53191 -10.52885 -10.52883 -10.52504
 Alpha  occ. eigenvalues --  -10.52503 -10.51810  -0.94059  -0.86104  -0.83944
 Alpha  occ. eigenvalues --   -0.76105  -0.69892  -0.66052  -0.62176  -0.55278
 Alpha  occ. eigenvalues --   -0.51056  -0.51046  -0.49677  -0.48273  -0.44778
 Alpha  occ. eigenvalues --   -0.44481  -0.42582  -0.41553  -0.40230  -0.37963
 Alpha  occ. eigenvalues --   -0.35901  -0.35690  -0.23668
 Alpha virt. eigenvalues --    0.01780   0.02632   0.02960   0.03369   0.04696
 Alpha virt. eigenvalues --    0.05129   0.06200   0.06605   0.06856   0.08440
 Alpha virt. eigenvalues --    0.08557   0.09668   0.10127   0.10271   0.10791

  Beta  occ. eigenvalues --  -10.53193 -10.52952 -10.52947 -10.52773 -10.52467
  Beta  occ. eigenvalues --  -10.52466 -10.51808  -0.93455  -0.85028  -0.83725
  Beta  occ. eigenvalues --   -0.75302  -0.69667  -0.65230  -0.60872  -0.54631
  Beta  occ. eigenvalues --   -0.50827  -0.50657  -0.48404  -0.47944  -0.44372
  Beta  occ. eigenvalues --   -0.44366  -0.41876  -0.41150  -0.39728  -0.37796
  Beta  occ. eigenvalues --   -0.35649  -0.35477
  Beta virt. eigenvalues --   -0.01934   0.01922   0.02426   0.02910   0.02927
  Beta virt. eigenvalues --    0.04808   0.05188   0.06009   0.06439   0.06636
  Beta virt. eigenvalues --    0.08359   0.08363   0.09136   0.09672   0.10108

 Mulliken atomic charges:
              1
     1  C   -0.040296
     2  C   -0.346430
     3  C   -0.346430
     4  C   -0.347676
     5  C   -0.347676
     6  C   -0.590857
     7  C   -0.191034
     8  H    0.194002
     9  H    0.160036
    10  H    0.198806
    11  H    0.198806
    12  H    0.160036
    13  H    0.151406
    14  H    0.179933
    15  H    0.179933
    16  H    0.151406
    17  H    0.145350
    18  H    0.145350
    19  H    0.161078
    20  H    0.184261
 Sum of Mulliken atomic charges =   0.00000

 Dipole moment (field-independent basis, Debye):
    X=             -0.2907    Y=             -0.0373    Z=              0.0000  Tot=              0.2931
 Quadrupole moment (field-independent basis, Debye-Ang):
   XX=            -46.8200   YY=            -47.0177   ZZ=            -45.8558
   XY=             -0.1633   XZ=              0.0000   YZ=              0.0000

  Exact polarizability:  72.135  -4.859  88.753   0.000   0.000  82.017
 Approx polarizability:  94.528  -0.959  94.940   0.000   0.000  94.976

                     1                      2                      3
                    A'                     A"                     A"
 Frequencies --   127.6793               200.0226               222.5623
 Red. masses --     2.0853                 1.4600                 1.1981
 Frc consts  --     0.0200                 0.0344                 0.0350
 IR Inten    --     0.2460                 0.1232                 0.0070

                     4                      5                      6
                    A'                     A"                     A'
 Frequencies --   239.8383               309.4743               368.7771
 Red. masses --     1.5608                 2.2162                 1.4929
 Frc consts  --     0.0529                 0.1251                 0.1196
 IR Inten    --     2.6565                 0.0000                16.1529

                     7                      8                      9
                    A'                     A"                     A'
 Frequencies --   421.1651               449.6379               454.7690
 Red. masses --     2.1925                 2.9897                 2.4992
 Frc consts  --     0.2291                 0.3561                 0.3045
 IR Inten    --     1.7228                 0.0399                 2.3132

                    10                     11                     12
                    A'                     A"                     A'
 Frequencies --   629.0572               778.3869               789.7473
 Red. masses --     2.0846                 1.4664                 2.4495
 Frc consts  --     0.4860                 0.5235                 0.9001
 IR Inten    --     3.3662                 0.0493                 0.1995

                    13                     14                     15
                    A'                     A"                     A"
 Frequencies --   875.7913               895.4486               931.1842
 Red. masses --     2.5651                 1.8482                 1.4401
 Frc consts  --     1.1592                 0.8731                 0.7357
 IR Inten    --     1.4079                 0.8708                 0.6326

                    16                     17                     18
                    A'                     A'                     A"
 Frequencies --   956.6837               972.1958              1002.7029
 Red. masses --     1.3369                 2.3153                 1.6430
 Frc consts  --     0.7209                 1.2893                 0.9733
 IR Inten    --     1.0231                 2.8234                 1.7607

                    19                     20                     21
                    A'                     A"                     A'
 Frequencies --  1036.1539              1095.1191              1095.4093
 Red. masses --     2.0343                 1.0724                 1.8397
 Frc consts  --     1.2868                 0.7578                 1.3006
 IR Inten    --     1.2226                 1.3268                 1.5179

                    22                     23                     24
                    A"                     A'                     A"
 Frequencies --  1120.5632              1137.7957              1167.0650
 Red. masses --     1.1760                 2.2986                 2.1926
 Frc consts  --     0.8700                 1.7532                 1.7595
 IR Inten    --     0.1005                 0.2403                 0.9359

                    25                     26                     27
                    A"                     A'                     A'
 Frequencies --  1237.2580              1253.1833              1288.6254
 Red. masses --     1.4884                 1.4203                 1.2574
 Frc consts  --     1.3424                 1.3142                 1.2302
 IR Inten    --     1.3245                 0.2822                 0.0064

                    28                     29                     30
                    A"                     A'                     A"
 Frequencies --  1316.7408              1326.8934              1340.2564
 Red. masses --     1.4366                 1.2401                 1.3479
 Frc consts  --     1.4676                 1.2864                 1.4266
 IR Inten    --     0.2139                 1.4154                 0.6033

                    31                     32                     33
                    A'                     A"                     A"
 Frequencies --  1365.3805              1380.3264              1400.5984
 Red. masses --     1.5772                 1.4744                 2.0071
 Frc consts  --     1.7324                 1.6551                 2.3198
 IR Inten    --     0.3733                 1.1228                 0.0000

                    34                     35                     36
                    A'                     A'                     A"
 Frequencies --  1400.9808              1409.2646              1470.0518
 Red. masses --     1.6514                 1.2544                 1.0835
 Frc consts  --     1.9097                 1.4678                 1.3796
 IR Inten    --     1.1723                 4.1941                 2.7820

                    37                     38                     39
                    A'                     A"                     A'
 Frequencies --  1478.3844              1481.4662              1493.8574
 Red. masses --     1.0928                 1.1045                 1.0995
 Frc consts  --     1.4072                 1.4283                 1.4457
 IR Inten    --     8.9686                 3.4899                 1.9416

                    40                     41                     42
                    A"                     A'                     A"
 Frequencies --  1500.5187              1501.6496              2952.5040
 Red. masses --     1.0616                 1.0446                 1.0714
 Frc consts  --     1.4083                 1.3879                 5.5028
 IR Inten    --     5.0427                10.3731                14.1437

                    43                     44                     45
                    A'                     A'                     A"
 Frequencies --  2954.7503              3009.6939              3027.0143
 Red. masses --     1.0711                 1.0809                 1.0608
 Frc consts  --     5.5097                 5.7688                 5.7269
 IR Inten    --    45.6074                 6.3770                17.9869

                    46                     47                     48
                    A'                     A'                     A"
 Frequencies --  3031.1212              3036.2831              3073.2031
 Red. masses --     1.0520                 1.0457                 1.1021
 Frc consts  --     5.6950                 5.6799                 6.1326
 IR Inten    --    11.9199                60.7057                33.1321

                    49                     50                     51
                    A'                     A"                     A'
 Frequencies --  3076.1592              3081.2078              3081.2246
 Red. masses --     1.1024                 1.0883                 1.0889
 Frc consts  --     6.1461                 6.0877                 6.0911
 IR Inten    --    23.8852                30.7685                20.6137

                    52                     53                     54
                    A'                     A"                     A'
 Frequencies --  3102.7679              3110.9954              3200.1366
 Red. masses --     1.1012                 1.1025                 1.0893
 Frc consts  --     6.2460                 6.2868                 6.5728
 IR Inten    --    36.6403                23.6397                20.2274

 - Thermochemistry -
 -------------------
 Temperature   298.150 Kelvin.  Pressure   1.00000 Atm.
 Atom     1 has atomic number  6 and mass  12.00000

 Molecular mass:    97.10173 amu.
 Principal axes and moments of inertia in atomic units:
                           1         2         3
     Eigenvalues --   422.41874 791.973041114.07954
           X           -0.24120   0.00000   0.97047
           Y            0.97047   0.00000   0.24120
           Z            0.00000   1.00000   0.00000
 This molecule is an asymmetric top.
 Rotational symmetry number  1.
 Rotational temperatures (Kelvin)      0.20504     0.10936     0.07774
 Rotational constants (GHZ):           4.27240     2.27879     1.61994
 Zero-point vibrational energy     482452.3 (Joules/Mol)
                                  115.30887 (Kcal/Mol)
 Warning -- explicit consideration of   9 degrees of freedom as
           vibrations may cause significant error
 Vibrational temperatures:    183.70   287.79   320.22   345.07   445.26
          (Kelvin)            530.59   605.96   646.93   654.31   905.07
                             1119.92  1136.27  1260.07  1288.35  1339.76
                             1376.45  1398.77  1442.66  1490.79  1575.63
                             1576.05  1612.24  1637.03  1679.14  1780.14
                             1803.05  1854.04  1894.49  1909.10  1928.33
                             1964.48  1985.98  2015.15  2015.70  2027.61
                             2115.07  2127.06  2131.50  2149.32  2158.91
                             2160.54  4247.99  4251.22  4330.27  4355.19
                             4361.10  4368.53  4421.65  4425.90  4433.17
                             4433.19  4464.19  4476.02  4604.28

 Zero-point correction=                           0.183756 (Hartree/Particle)
 Thermal correction to Energy=                    0.191302
 Thermal correction to Enthalpy=                  0.192246
 Thermal correction to Gibbs Free Energy=         0.152113
 Sum of electronic and zero-point Energies=           -274.289299
 Sum of electronic and thermal Energies=              -274.281753
 Sum of electronic and thermal Enthalpies=            -274.280809
 Sum of electronic and thermal Free Energies=         -274.320943

                     E (Thermal)             CV                S
                      KCal/Mol        Cal/Mol-Kelvin    Cal/Mol-Kelvin
 Total                  120.044             29.254             84.469
 Electronic               0.000              0.000              1.377
 Translational            0.889              2.981             39.630
 Rotational               0.889              2.981             27.413
 Vibrational            118.267             23.292             16.048
 Vibration     1          0.611              1.926              2.981
 Vibration     2          0.638              1.840              2.133
 Vibration     3          0.648              1.807              1.938
 Vibration     4          0.657              1.779              1.804
 Vibration     5          0.699              1.656              1.365
 Vibration     6          0.741              1.536              1.085
 Vibration     7          0.784              1.424              0.888
 Vibration     8          0.809              1.362              0.797
 Vibration     9          0.813              1.350              0.781

 Optimization completed.
    -- Stationary point found.
 Normal termination of Gaussian 09 at Tue Mar 14 08:12:50 2017.
