 Gaussian 09, Revision B.01,
 Gaussian 09:  EM64L-G09RevB.01 12-Aug-2010

 --------------------------------------------------------------
 # m062x/6-311+g(2df,2p) opt=(verytight,gdiis) freq IOP(2/16=3)
 --------------------------------------------------------------

 -------------------------------------------------
 InChI=1S/C6H11O/c1-6(2)4-3-5-7/h6H,3-4H2,1-2H3/u5
 -------------------------------------------------
 Symbolic Z-matrix:
 Charge =  0 Multiplicity = 2

 SCF Done:  E(UM062X) =  -310.378078117     A.U. after   15 cycles
 SCF Done:  E(UM062X) =  -310.387854197     A.U. after   16 cycles
 SCF Done:  E(UM062X) =  -310.388141539     A.U. after   18 cycles
 SCF Done:  E(UM062X) =  -310.388167195     A.U. after   18 cycles
 SCF Done:  E(UM062X) =  -310.388172801     A.U. after   12 cycles
 SCF Done:  E(UM062X) =  -310.388177728     A.U. after   10 cycles
 SCF Done:  E(UM062X) =  -310.388199929     A.U. after   12 cycles
 SCF Done:  E(UM062X) =  -310.388221192     A.U. after   12 cycles
 SCF Done:  E(UM062X) =  -310.387845180     A.U. after   15 cycles
 SCF Done:  E(UM062X) =  -310.388356448     A.U. after   14 cycles
 SCF Done:  E(UM062X) =  -310.388519525     A.U. after    9 cycles
 SCF Done:  E(UM062X) =  -310.388519460     A.U. after    9 cycles
 SCF Done:  E(UM062X) =  -310.388519442     A.U. after    8 cycles
 SCF Done:  E(UM062X) =  -310.388519441     A.U. after    4 cycles
 SCF Done:  E(UM062X) =  -310.388519435     A.U. after    8 cycles
 SCF Done:  E(UM062X) =  -310.388519437     A.U. after    7 cycles
 SCF Done:  E(UM062X) =  -310.388519439     A.U. after    3 cycles
 SCF Done:  E(UM062X) =  -310.388519438     A.U. after    3 cycles
 SCF Done:  E(UM062X) =  -310.388519438     A.U. after    2 cycles
 Optimization completed.
    -- Stationary point found.
 Normal termination of Gaussian 09 at Wed Sep 20 15:44:35 2017.

 ----------------------------------------------------------------------
 #N Geom=AllCheck Guess=TCheck SCRF=Check Test GenChk UM062X/6-311+G(2d
 f,2p) Freq
 ----------------------------------------------------------------------

 InChI=1S/C6H11O/c1-6(2)4-3-5-7/h6H,3-4H2,1-2H3/u5
 -------------------------------------------------
 Redundant internal coordinates taken from checkpoint file:
 /gss_gpfs_scratch/harms.n/comparerTST/Gau-48448.chk
 Charge =  0 Multiplicity = 2

                         Standard orientation:
 ---------------------------------------------------------------------
 Center     Atomic      Atomic             Coordinates (Angstroms)
 Number     Number       Type             X           Y           Z
 ---------------------------------------------------------------------
      1          6           0       -1.428052   -0.036436   -0.354933
      2          6           0       -0.089748   -0.505200    0.218197
      3          6           0        1.081859    0.400337   -0.147525
      4          6           0       -2.523050   -1.036203    0.005522
      5          6           0       -1.799904    1.361526    0.133567
      6          6           0        2.397091   -0.143931    0.372568
      7          1           0       -1.335254   -0.006867   -1.445742
      8          1           0       -0.163258   -0.570724    1.307683
      9          1           0        0.116407   -1.516487   -0.140247
     10          1           0        0.973638    1.380794    0.321847
     11          1           0        1.168777    0.545702   -1.228554
     12          1           0       -2.655595   -1.079469    1.088883
     13          1           0       -2.275613   -2.039548   -0.342225
     14          1           0       -3.477597   -0.749415   -0.435831
     15          1           0       -1.099125    2.120417   -0.213955
     16          1           0       -2.791040    1.643617   -0.221631
     17          1           0       -1.816463    1.390014    1.225981
     18          8           0        3.440745   -0.169824   -0.160073
 ---------------------------------------------------------------------

 SCF Done:  E(UM062X) =  -310.388519438     A.U. after    1 cycles

 The electronic state is 2-A.
 Alpha  occ. eigenvalues --  -19.66993 -10.62974 -10.56803 -10.54951 -10.54739
 Alpha  occ. eigenvalues --  -10.53129 -10.52921  -1.22415  -0.93666  -0.87205
 Alpha  occ. eigenvalues --   -0.78654  -0.75540  -0.65471  -0.63541  -0.57040
 Alpha  occ. eigenvalues --   -0.55710  -0.54541  -0.52166  -0.49964  -0.49619
 Alpha  occ. eigenvalues --   -0.47155  -0.45952  -0.43859  -0.42957  -0.39603
 Alpha  occ. eigenvalues --   -0.39570  -0.39359  -0.25256
 Alpha virt. eigenvalues --    0.00932   0.01847   0.02408   0.02886   0.03471
 Alpha virt. eigenvalues --    0.05192   0.05441   0.05959   0.06209   0.06610
 Alpha virt. eigenvalues --    0.08389   0.08853   0.09531   0.09748   0.10281

  Beta  occ. eigenvalues --  -19.66340 -10.62315 -10.56587 -10.54951 -10.54740
  Beta  occ. eigenvalues --  -10.53128 -10.52920  -1.20443  -0.93442  -0.86451
  Beta  occ. eigenvalues --   -0.78649  -0.74917  -0.65393  -0.61412  -0.56584
  Beta  occ. eigenvalues --   -0.53992  -0.52851  -0.51430  -0.49236  -0.47090
  Beta  occ. eigenvalues --   -0.46297  -0.45793  -0.43429  -0.42192  -0.39536
  Beta  occ. eigenvalues --   -0.39411  -0.39051
  Beta virt. eigenvalues --   -0.03735   0.01166   0.02186   0.02540   0.02937
  Beta virt. eigenvalues --    0.03809   0.04980   0.05346   0.05923   0.06026
  Beta virt. eigenvalues --    0.06238   0.08317   0.08659   0.09300   0.09521

 Mulliken atomic charges:
              1
     1  C    0.084488
     2  C   -0.404665
     3  C   -0.104207
     4  C   -0.526854
     5  C   -0.547204
     6  C   -0.139417
     7  H    0.178583
     8  H    0.209872
     9  H    0.179059
    10  H    0.174508
    11  H    0.172498
    12  H    0.156318
    13  H    0.144542
    14  H    0.152295
    15  H    0.152660
    16  H    0.153410
    17  H    0.168409
    18  O   -0.204296
 Sum of Mulliken atomic charges =   0.00000

 Dipole moment (field-independent basis, Debye):
    X=             -2.8677    Y=              0.6513    Z=             -0.3405  Tot=              2.9604
 Quadrupole moment (field-independent basis, Debye-Ang):
   XX=            -56.5981   YY=            -44.3775   ZZ=            -45.2480
   XY=              1.6091   XZ=             -0.0362   YZ=              0.6294

  Exact polarizability:  91.333  -0.362  69.794  -1.325  -1.447  65.967
 Approx polarizability:  94.318  -1.218  81.929  -3.429  -0.918  84.535

                     1                      2                      3
                     A                      A                      A
 Frequencies --    53.3857                84.0349               113.2805
 Red. masses --     6.0810                 3.0638                 2.0808
 Frc consts  --     0.0102                 0.0127                 0.0157
 IR Inten    --     1.3626                 2.7052                 0.0843

                     4                      5                      6
                     A                      A                      A
 Frequencies --   186.6705               217.9582               264.1286
 Red. masses --     3.1771                 1.0887                 1.1835
 Frc consts  --     0.0652                 0.0305                 0.0486
 IR Inten    --     1.4778                 0.1555                 0.2993

                     7                      8                      9
                     A                      A                      A
 Frequencies --   319.8849               360.6776               421.0359
 Red. masses --     2.8686                 2.9840                 2.2548
 Frc consts  --     0.1729                 0.2287                 0.2355
 IR Inten    --     0.7604                 1.0742                 1.3055

                    10                     11                     12
                     A                      A                      A
 Frequencies --   441.5216               515.7690               755.9167
 Red. masses --     2.4880                 3.0848                 1.2699
 Frc consts  --     0.2858                 0.4835                 0.4275
 IR Inten    --     0.3840                11.5011                 1.4364

                    13                     14                     15
                     A                      A                      A
 Frequencies --   839.2187               886.5055               935.3478
 Red. masses --     2.5430                 2.7299                 1.1685
 Frc consts  --     1.0552                 1.2640                 0.6023
 IR Inten    --     0.4536                 3.4166                 1.3269

                    16                     17                     18
                     A                      A                      A
 Frequencies --   951.3476               969.6131               981.8777
 Red. masses --     1.6826                 1.5820                 1.7145
 Frc consts  --     0.8973                 0.8763                 0.9739
 IR Inten    --    13.2379                 0.1875                 0.7628

                    19                     20                     21
                     A                      A                      A
 Frequencies --  1069.0700              1103.7921              1155.2637
 Red. masses --     2.5344                 1.3507                 2.1388
 Frc consts  --     1.7067                 0.9695                 1.6818
 IR Inten    --     1.8419                 7.2343                 1.4225

                    22                     23                     24
                     A                      A                      A
 Frequencies --  1201.3733              1220.0071              1254.5583
 Red. masses --     1.7287                 1.6259                 1.3558
 Frc consts  --     1.4701                 1.4259                 1.2572
 IR Inten    --     3.3088                 4.9788                 0.5307

                    25                     26                     27
                     A                      A                      A
 Frequencies --  1315.2143              1340.7150              1371.9865
 Red. masses --     1.1625                 1.3410                 1.3443
 Frc consts  --     1.1848                 1.4202                 1.4909
 IR Inten    --     0.8597                 1.0497                 1.8066

                    28                     29                     30
                     A                      A                      A
 Frequencies --  1392.1263              1405.4533              1424.0813
 Red. masses --     1.5828                 1.3406                 1.2475
 Frc consts  --     1.8074                 1.5602                 1.4907
 IR Inten    --     1.1262                 9.4435                 6.9849

                    31                     32                     33
                     A                      A                      A
 Frequencies --  1456.4182              1487.6022              1496.2564
 Red. masses --     1.0898                 1.0661                 1.0557
 Frc consts  --     1.3620                 1.3900                 1.3926
 IR Inten    --     4.2728                 0.7422                 2.6997

                    34                     35                     36
                     A                      A                      A
 Frequencies --  1500.1423              1508.7245              1519.7907
 Red. masses --     1.0629                 1.0629                 1.0465
 Frc consts  --     1.4093                 1.4254                 1.4242
 IR Inten    --     3.6353                 4.2000                16.4745

                    37                     38                     39
                     A                      A                      A
 Frequencies --  1997.4409              3030.7342              3037.6673
 Red. masses --    13.1245                 1.0779                 1.0371
 Frc consts  --    30.8519                 5.8332                 5.6382
 IR Inten    --   216.3288                 3.3740                20.6757

                    40                     41                     42
                     A                      A                      A
 Frequencies --  3038.9353              3042.1427              3048.0342
 Red. masses --     1.0506                 1.0517                 1.0604
 Frc consts  --     5.7166                 5.7345                 5.8042
 IR Inten    --    11.3615                 5.4416                28.8006

                    43                     44                     45
                     A                      A                      A
 Frequencies --  3084.0482              3106.2685              3111.7558
 Red. masses --     1.1027                 1.1006                 1.1003
 Frc consts  --     6.1793                 6.2566                 6.2776
 IR Inten    --     9.7541                 3.9631                14.5949

                    46                     47                     48
                     A                      A                      A
 Frequencies --  3111.9998              3118.7538              3125.3153
 Red. masses --     1.1013                 1.1025                 1.1006
 Frc consts  --     6.2841                 6.3184                 6.3341
 IR Inten    --    38.2636                23.3822                25.8530

 - Thermochemistry -
 -------------------
 Temperature   298.150 Kelvin.  Pressure   1.00000 Atm.
 Atom     1 has atomic number  6 and mass  12.00000

 Molecular mass:    99.08099 amu.
 Principal axes and moments of inertia in atomic units:
                           1         2         3
     Eigenvalues --   264.386451659.618211829.58597
           X            0.99998   0.00616  -0.00314
           Y           -0.00616   0.99998  -0.00047
           Z            0.00313   0.00049   0.99999
 This molecule is an asymmetric top.
 Rotational symmetry number  1.
 Rotational temperatures (Kelvin)      0.32760     0.05219     0.04734
 Rotational constants (GHZ):           6.82615     1.08744     0.98642
 Zero-point vibrational energy     414947.7 (Joules/Mol)
                                   99.17489 (Kcal/Mol)
 Warning -- explicit consideration of  11 degrees of freedom as
           vibrations may cause significant error
 Vibrational temperatures:     76.81   120.91   162.99   268.58   313.59
          (Kelvin)            380.02   460.24   518.93   605.78   635.25
                              742.08  1087.59  1207.45  1275.48  1345.76
                             1368.78  1395.06  1412.70  1538.15  1588.11
                             1662.16  1728.51  1755.32  1805.03  1892.30
                             1928.99  1973.98  2002.96  2022.13  2048.93
                             2095.46  2140.33  2152.78  2158.37  2170.72
                             2186.64  2873.87  4360.55  4370.52  4372.34
                             4376.96  4385.44  4437.25  4469.22  4477.12
                             4477.47  4487.19  4496.63

 Zero-point correction=                           0.158045 (Hartree/Particle)
 Thermal correction to Energy=                    0.166870
 Thermal correction to Enthalpy=                  0.167814
 Thermal correction to Gibbs Free Energy=         0.123594
 Sum of electronic and zero-point Energies=           -310.230474
 Sum of electronic and thermal Energies=              -310.221649
 Sum of electronic and thermal Enthalpies=            -310.220705
 Sum of electronic and thermal Free Energies=         -310.264926

                     E (Thermal)             CV                S
                      KCal/Mol        Cal/Mol-Kelvin    Cal/Mol-Kelvin
 Total                  104.713             30.542             93.070
 Electronic               0.000              0.000              1.377
 Translational            0.889              2.981             39.691
 Rotational               0.889              2.981             28.175
 Vibrational            102.935             24.580             23.827
 Vibration     1          0.596              1.976              4.688
 Vibration     2          0.601              1.960              3.794
 Vibration     3          0.607              1.938              3.212
 Vibration     4          0.632              1.858              2.261
 Vibration     5          0.646              1.814              1.976
 Vibration     6          0.671              1.739              1.634
 Vibration     7          0.706              1.636              1.311
 Vibration     8          0.735              1.553              1.119
 Vibration     9          0.784              1.425              0.888
 Vibration    10          0.801              1.380              0.822
 Vibration    11          0.871              1.215              0.620

 Normal termination of Gaussian 09 at Wed Sep 20 16:22:52 2017.
