 Gaussian 09, Revision B.01,
 Gaussian 09:  EM64L-G09RevB.01 12-Aug-2010

 --------------------------------------------------------------
 # m062x/6-311+g(2df,2p) opt=(verytight,gdiis) freq IOP(2/16=3)
 --------------------------------------------------------------

 -----------------------------------------
 InChI=1S/C4H5O2/c1-3-4(5)6-2/h1,3H,2H3/u1
 -----------------------------------------
 Symbolic Z-matrix:
 Charge =  0 Multiplicity = 2

 SCF Done:  E(UM062X) =  -305.738439244     A.U. after   17 cycles
 SCF Done:  E(UM062X) =  -305.757866515     A.U. after   18 cycles
 SCF Done:  E(UM062X) =  -305.759504123     A.U. after   18 cycles
 SCF Done:  E(UM062X) =  -305.759650101     A.U. after   13 cycles
 SCF Done:  E(UM062X) =  -305.759665276     A.U. after   17 cycles
 SCF Done:  E(UM062X) =  -305.759664360     A.U. after   17 cycles
 SCF Done:  E(UM062X) =  -305.759667119     A.U. after   17 cycles
 SCF Done:  E(UM062X) =  -305.759667267     A.U. after   17 cycles
 SCF Done:  E(UM062X) =  -305.759667270     A.U. after    5 cycles
 SCF Done:  E(UM062X) =  -305.759667270     A.U. after    4 cycles
 SCF Done:  E(UM062X) =  -305.759667270     A.U. after    2 cycles
 Optimization completed.
    -- Stationary point found.
 Normal termination of Gaussian 09 at Thu Mar  9 11:30:20 2017.

 ----------------------------------------------------------------------
 #N Geom=AllCheck Guess=TCheck SCRF=Check Test GenChk UM062X/6-311+G(2d
 f,2p) Freq
 ----------------------------------------------------------------------

 InChI=1S/C4H5O2/c1-3-4(5)6-2/h1,3H,2H3/u1
 -----------------------------------------
 Redundant internal coordinates taken from checkpoint file:
 /gss_gpfs_scratch/westgroup/rwest-autotst-1/Gau-17709.chk
 Charge =  0 Multiplicity = 2

                         Standard orientation:
 ---------------------------------------------------------------------
 Center     Atomic      Atomic             Coordinates (Angstroms)
 Number     Number       Type             X           Y           Z
 ---------------------------------------------------------------------
      1          6           0       -2.005681   -0.633300   -0.000001
      2          6           0        0.059029    0.447994    0.000000
      3          6           0        1.538977    0.295967    0.000001
      4          8           0       -0.583082   -0.723710    0.000002
      5          6           0        2.147014   -0.859226   -0.000001
      6          1           0       -2.350729   -0.103298   -0.885849
      7          1           0       -2.367941   -1.655662   -0.000014
      8          1           0       -2.350734   -0.103320    0.885860
      9          1           0        2.079585    1.239106    0.000003
     10          8           0       -0.493461    1.514081   -0.000001
     11          1           0        3.166123   -1.208395   -0.000001
 ---------------------------------------------------------------------

 SCF Done:  E(UM062X) =  -305.759667270     A.U. after    1 cycles

 The electronic state is 2-A.
 Alpha  occ. eigenvalues --  -19.67391 -19.61801 -10.67926 -10.59208 -10.59118
 Alpha  occ. eigenvalues --  -10.56673  -1.24488  -1.14918  -0.91455  -0.82540
 Alpha  occ. eigenvalues --   -0.71906  -0.65198  -0.58470  -0.58018  -0.57587
 Alpha  occ. eigenvalues --   -0.53900  -0.49405  -0.47954  -0.43837  -0.38204
 Alpha  occ. eigenvalues --   -0.37446  -0.37061  -0.31957
 Alpha virt. eigenvalues --   -0.02190   0.01533   0.02135   0.03853   0.04631
 Alpha virt. eigenvalues --    0.04727   0.05944   0.08117   0.08728   0.08939
 Alpha virt. eigenvalues --    0.09862   0.10921   0.11029   0.13549   0.15151

  Beta  occ. eigenvalues --  -19.67373 -19.61832 -10.67847 -10.59208 -10.58126
  Beta  occ. eigenvalues --  -10.56777  -1.24451  -1.14955  -0.89936  -0.81952
  Beta  occ. eigenvalues --   -0.70058  -0.64687  -0.57665  -0.57612  -0.56827
  Beta  occ. eigenvalues --   -0.52826  -0.48812  -0.48044  -0.43746  -0.38367
  Beta  occ. eigenvalues --   -0.36792  -0.35350
  Beta virt. eigenvalues --   -0.05853  -0.00981   0.01615   0.02181   0.03933
  Beta virt. eigenvalues --    0.04612   0.04927   0.06005   0.08106   0.08740
  Beta virt. eigenvalues --    0.08883   0.09985   0.11011   0.11162   0.13131

 Mulliken atomic charges:
              1
     1  C   -0.191109
     2  C    0.204966
     3  C    0.088192
     4  O   -0.137832
     5  C   -0.316302
     6  H    0.138534
     7  H    0.134725
     8  H    0.138534
     9  H    0.166296
    10  O   -0.397013
    11  H    0.171008
 Sum of Mulliken atomic charges =   0.00000

 Dipole moment (field-independent basis, Debye):
    X=              0.7586    Y=             -1.6857    Z=              0.0000  Tot=              1.8485
 Quadrupole moment (field-independent basis, Debye-Ang):
   XX=            -25.4154   YY=            -39.4807   ZZ=            -35.8553
   XY=              2.2095   XZ=              0.0000   YZ=              0.0000

  Exact polarizability:  65.751  -6.874  58.825   0.000   0.000  37.514
 Approx polarizability:  65.572 -11.883  76.240   0.000   0.000  46.240

                     1                      2                      3
                     A                      A                      A
 Frequencies --   101.4189               153.3822               183.7555
 Red. masses --     3.2649                 1.1126                 2.8811
 Frc consts  --     0.0198                 0.0154                 0.0573
 IR Inten    --     0.0386                 0.0208                13.0085

                     4                      5                      6
                     A                      A                      A
 Frequencies --   214.0036               341.9242               535.6333
 Red. masses --     3.5963                 3.8890                 5.3046
 Frc consts  --     0.0970                 0.2679                 0.8967
 IR Inten    --     5.8497                13.5075                 2.4679

                     7                      8                      9
                     A                      A                      A
 Frequencies --   560.4177               625.5305               828.4170
 Red. masses --     1.5520                 2.8319                 2.5153
 Frc consts  --     0.2872                 0.6529                 1.0170
 IR Inten    --    13.4437                 5.2809                49.8388

                    10                     11                     12
                     A                      A                      A
 Frequencies --   837.9486               899.6467               915.6549
 Red. masses --     1.8507                 3.1826                 1.6007
 Frc consts  --     0.7656                 1.5177                 0.7907
 IR Inten    --    17.4448                30.9675                 4.1550

                    13                     14                     15
                     A                      A                      A
 Frequencies --  1115.3756              1189.4335              1218.4775
 Red. masses --     6.7017                 1.2844                 1.4600
 Frc consts  --     4.9122                 1.0706                 1.2771
 IR Inten    --    51.7895                 1.5256                 4.6337

                    16                     17                     18
                     A                      A                      A
 Frequencies --  1241.8656              1329.1295              1482.9770
 Red. masses --     1.3524                 5.5663                 1.2350
 Frc consts  --     1.2289                 5.7936                 1.6003
 IR Inten    --     7.8101               403.6398                27.7842

                    19                     20                     21
                     A                      A                      A
 Frequencies --  1491.9692              1512.1317              1682.1853
 Red. masses --     1.0437                 1.0516                 7.3189
 Frc consts  --     1.3689                 1.4167                12.2023
 IR Inten    --     9.5638                 9.5307                14.2477

                    22                     23                     24
                     A                      A                      A
 Frequencies --  1835.6734              3076.4665              3126.4251
 Red. masses --    11.5506                 1.0308                 1.0855
 Frc consts  --    22.9322                 5.7479                 6.2515
 IR Inten    --   354.7556                24.5276                 0.1191

                    25                     26                     27
                     A                      A                      A
 Frequencies --  3151.5276              3185.8765              3258.0457
 Red. masses --     1.1066                 1.1060                 1.1051
 Frc consts  --     6.4756                 6.6142                 6.9111
 IR Inten    --    12.1332                 8.6887                 2.1253

 - Thermochemistry -
 -------------------
 Temperature   298.150 Kelvin.  Pressure   1.00000 Atm.
 Atom     1 has atomic number  6 and mass  12.00000

 Molecular mass:    85.02895 amu.
 Principal axes and moments of inertia in atomic units:
                           1         2         3
     Eigenvalues --   247.92783 622.34641 858.97713
           X            0.99954   0.03024   0.00000
           Y           -0.03024   0.99954   0.00000
           Z            0.00000   0.00000   1.00000
 This molecule is an asymmetric top.
 Rotational symmetry number  1.
 Rotational temperatures (Kelvin)      0.34935     0.13917     0.10083
 Rotational constants (GHZ):           7.27930     2.89990     2.10104
 Zero-point vibrational energy     215897.8 (Joules/Mol)
                                   51.60081 (Kcal/Mol)
 Warning -- explicit consideration of   7 degrees of freedom as
           vibrations may cause significant error
 Vibrational temperatures:    145.92   220.68   264.38   307.90   491.95
          (Kelvin)            770.66   806.32   900.00  1191.91  1205.62
                             1294.39  1317.42  1604.77  1711.33  1753.12
                             1786.77  1912.32  2133.67  2146.61  2175.62
                             2420.29  2641.12  4426.34  4498.22  4534.34
                             4583.76  4687.60

 Zero-point correction=                           0.082231 (Hartree/Particle)
 Thermal correction to Energy=                    0.088801
 Thermal correction to Enthalpy=                  0.089745
 Thermal correction to Gibbs Free Energy=         0.051287
 Sum of electronic and zero-point Energies=           -305.677436
 Sum of electronic and thermal Energies=              -305.670867
 Sum of electronic and thermal Enthalpies=            -305.669923
 Sum of electronic and thermal Free Energies=         -305.708380

                     E (Thermal)             CV                S
                      KCal/Mol        Cal/Mol-Kelvin    Cal/Mol-Kelvin
 Total                   55.723             21.799             80.941
 Electronic               0.000              0.000              1.377
 Translational            0.889              2.981             39.235
 Rotational               0.889              2.981             26.386
 Vibrational             53.946             15.837             13.943
 Vibration     1          0.604              1.948              3.427
 Vibration     2          0.619              1.899              2.630
 Vibration     3          0.631              1.862              2.290
 Vibration     4          0.644              1.820              2.009
 Vibration     5          0.721              1.592              1.203
 Vibration     6          0.891              1.171              0.575
 Vibration     7          0.916              1.117              0.523

 Normal termination of Gaussian 09 at Thu Mar  9 11:42:40 2017.
