 Gaussian 09, Revision B.01,
 Gaussian 09:  EM64L-G09RevB.01 12-Aug-2010

 --------------------------------------------------------------
 # m062x/6-311+g(2df,2p) opt=(verytight,gdiis) freq IOP(2/16=3)
 --------------------------------------------------------------

 -------------------------------------------
 InChI=1S/C7H14O/c1-6(8)5-7(2,3)4/h5H2,1-4H3
 -------------------------------------------
 Symbolic Z-matrix:
 Charge =  0 Multiplicity = 1

 SCF Done:  E(RM062X) =  -350.351797236     A.U. after   12 cycles
 SCF Done:  E(RM062X) =  -350.356938760     A.U. after   12 cycles
 SCF Done:  E(RM062X) =  -350.355401700     A.U. after   12 cycles
 SCF Done:  E(RM062X) =  -350.357389035     A.U. after   12 cycles
 SCF Done:  E(RM062X) =  -350.357425778     A.U. after   11 cycles
 SCF Done:  E(RM062X) =  -350.357448431     A.U. after   10 cycles
 SCF Done:  E(RM062X) =  -350.357464692     A.U. after    9 cycles
 SCF Done:  E(RM062X) =  -350.357484424     A.U. after   10 cycles
 SCF Done:  E(RM062X) =  -350.357490741     A.U. after   10 cycles
 SCF Done:  E(RM062X) =  -350.357494361     A.U. after    8 cycles
 SCF Done:  E(RM062X) =  -350.357494209     A.U. after    7 cycles
 SCF Done:  E(RM062X) =  -350.357494124     A.U. after    6 cycles
 SCF Done:  E(RM062X) =  -350.357494082     A.U. after    5 cycles
 SCF Done:  E(RM062X) =  -350.357494079     A.U. after    3 cycles
 SCF Done:  E(RM062X) =  -350.357494077     A.U. after    3 cycles
 SCF Done:  E(RM062X) =  -350.357494074     A.U. after    2 cycles
 SCF Done:  E(RM062X) =  -350.357494075     A.U. after    2 cycles
 Optimization completed.
    -- Stationary point found.
 Normal termination of Gaussian 09 at Wed Oct  4 22:30:57 2017.

 ----------------------------------------------------------------------
 #N Geom=AllCheck Guess=TCheck SCRF=Check Test GenChk RM062X/6-311+G(2d
 f,2p) Freq
 ----------------------------------------------------------------------

 InChI=1S/C7H14O/c1-6(8)5-7(2,3)4/h5H2,1-4H3
 -------------------------------------------
 Redundant internal coordinates taken from checkpoint file:
 /gss_gpfs_scratch/harms.n/comparerTST/Gau-17400.chk
 Charge =  0 Multiplicity = 1

                         Standard orientation:
 ---------------------------------------------------------------------
 Center     Atomic      Atomic             Coordinates (Angstroms)
 Number     Number       Type             X           Y           Z
 ---------------------------------------------------------------------
      1          6           0        1.048076   -0.048625    0.010462
      2          6           0       -0.174785   -0.109426   -0.936071
      3          6           0        0.837183   -0.965774    1.217324
      4          6           0        1.285905    1.383200    0.491193
      5          6           0        2.269162   -0.526316   -0.777025
      6          6           0       -2.404249   -0.958540    0.050069
      7          6           0       -1.486895    0.203770   -0.243372
      8          1           0       -0.224492   -1.103812   -1.385806
      9          1           0       -0.035808    0.624002   -1.732710
     10          1           0        1.727825   -0.969303    1.847452
     11          1           0       -0.000398   -0.631282    1.833022
     12          1           0        0.645479   -1.994662    0.904051
     13          1           0        0.434888    1.764227    1.053008
     14          1           0        1.452804    2.052562   -0.354246
     15          1           0        2.169396    1.416252    1.131221
     16          1           0        2.435042    0.099621   -1.655465
     17          1           0        3.165101   -0.480005   -0.155769
     18          1           0        2.142775   -1.557272   -1.112374
     19          1           0       -3.245717   -0.631783    0.653964
     20          1           0       -2.767857   -1.367689   -0.895136
     21          1           0       -1.859213   -1.758005    0.553162
     22          8           0       -1.785777    1.333427    0.055017
 ---------------------------------------------------------------------

 SCF Done:  E(RM062X) =  -350.357494075     A.U. after    1 cycles

 The electronic state is 1-A.
 Alpha  occ. eigenvalues --  -19.61346 -10.62704 -10.55779 -10.54020 -10.53878
 Alpha  occ. eigenvalues --  -10.52905 -10.52683 -10.51697  -1.16971  -0.93842
 Alpha  occ. eigenvalues --   -0.85644  -0.79709  -0.78455  -0.77833  -0.63946
 Alpha  occ. eigenvalues --   -0.60295  -0.55010  -0.54646  -0.54042  -0.50963
 Alpha  occ. eigenvalues --   -0.49959  -0.49701  -0.47152  -0.45825  -0.44363
 Alpha  occ. eigenvalues --   -0.44153  -0.43008  -0.42104  -0.39537  -0.38601
 Alpha  occ. eigenvalues --   -0.38285  -0.31699
 Alpha virt. eigenvalues --    0.00649   0.01690   0.02416   0.03288   0.03418
 Alpha virt. eigenvalues --    0.04669   0.05006   0.05297   0.05634   0.06626
 Alpha virt. eigenvalues --    0.07573   0.08074   0.08437   0.08798   0.09543

 Mulliken atomic charges:
              1
     1  C    0.170394
     2  C   -0.295964
     3  C   -0.628987
     4  C   -0.519466
     5  C   -0.491632
     6  C   -0.468339
     7  C    0.198224
     8  H    0.190729
     9  H    0.214544
    10  H    0.176668
    11  H    0.179431
    12  H    0.176885
    13  H    0.184550
    14  H    0.165769
    15  H    0.161207
    16  H    0.165281
    17  H    0.166499
    18  H    0.160313
    19  H    0.161503
    20  H    0.154062
    21  H    0.150589
    22  O   -0.372260
 Sum of Mulliken atomic charges =   0.00000

 Dipole moment (field-independent basis, Debye):
    X=              0.9653    Y=             -2.5923    Z=             -0.5772  Tot=              2.8258
 Quadrupole moment (field-independent basis, Debye-Ang):
   XX=            -53.1482   YY=            -55.5442   ZZ=            -51.1893
   XY=              5.4793   XZ=              1.0737   YZ=             -0.3735

  Exact polarizability:  94.350   1.143  86.278  -1.889   0.825  77.794
 Approx polarizability: 101.506  -1.592 107.796  -1.227   2.320  96.883

                     1                      2                      3
                     A                      A                      A
 Frequencies --    57.1806               110.2017               171.3361
 Red. masses --     3.7392                 2.6425                 1.6450
 Frc consts  --     0.0072                 0.0189                 0.0285
 IR Inten    --     3.4311                 3.4889                 1.4428

                     4                      5                      6
                     A                      A                      A
 Frequencies --   197.2615               224.6886               266.6718
 Red. masses --     1.6164                 1.0641                 1.2285
 Frc consts  --     0.0371                 0.0317                 0.0515
 IR Inten    --     0.2150                 0.4981                 0.2132

                     7                      8                      9
                     A                      A                      A
 Frequencies --   301.9843               307.7432               331.9179
 Red. masses --     2.2123                 1.9499                 1.1314
 Frc consts  --     0.1189                 0.1088                 0.0734
 IR Inten    --     0.5026                 0.3392                 0.0966

                    10                     11                     12
                     A                      A                      A
 Frequencies --   377.1851               401.1261               427.2888
 Red. masses --     2.1993                 2.3722                 2.1375
 Frc consts  --     0.1843                 0.2249                 0.2299
 IR Inten    --     0.6871                 0.3484                 0.3424

                    13                     14                     15
                     A                      A                      A
 Frequencies --   439.9168               537.2279               609.7225
 Red. masses --     2.0051                 2.6854                 2.7264
 Frc consts  --     0.2286                 0.4566                 0.5972
 IR Inten    --     0.7497                10.5150                 5.8565

                    16                     17                     18
                     A                      A                      A
 Frequencies --   756.9302               830.2237               899.8394
 Red. masses --     3.1026                 2.8078                 1.8169
 Frc consts  --     1.0473                 1.1403                 0.8668
 IR Inten    --     0.2043                 0.5481                 0.9260

                    19                     20                     21
                     A                      A                      A
 Frequencies --   939.3094               952.0571               954.8873
 Red. masses --     2.0061                 1.5720                 1.6480
 Frc consts  --     1.0428                 0.8395                 0.8854
 IR Inten    --     1.3239                 0.5244                 0.4999

                    22                     23                     24
                     A                      A                      A
 Frequencies --   963.4712               989.8284              1018.7062
 Red. masses --     1.2296                 1.5292                 1.5234
 Frc consts  --     0.6725                 0.8828                 0.9314
 IR Inten    --     0.0380                 8.1966                 0.4999

                    25                     26                     27
                     A                      A                      A
 Frequencies --  1069.0066              1080.1605              1163.8513
 Red. masses --     1.5929                 1.5133                 1.4507
 Frc consts  --     1.0725                 1.0403                 1.1578
 IR Inten    --     1.9600                 0.3275                11.3419

                    28                     29                     30
                     A                      A                      A
 Frequencies --  1227.7590              1255.8847              1271.7468
 Red. masses --     1.8854                 2.9504                 2.7183
 Frc consts  --     1.6745                 2.7418                 2.5903
 IR Inten    --    20.6789                39.1102                10.9668

                    31                     32                     33
                     A                      A                      A
 Frequencies --  1314.9610              1350.6902              1393.6840
 Red. masses --     1.8174                 1.6552                 1.4063
 Frc consts  --     1.8515                 1.7792                 1.6094
 IR Inten    --     2.1156                32.6767                57.7869

                    34                     35                     36
                     A                      A                      A
 Frequencies --  1399.2854              1408.5301              1434.8623
 Red. masses --     1.2679                 1.2734                 1.2423
 Frc consts  --     1.4627                 1.4885                 1.5069
 IR Inten    --    14.7187                13.3364                 3.5147

                    37                     38                     39
                     A                      A                      A
 Frequencies --  1469.7133              1482.5111              1482.6022
 Red. masses --     1.0521                 1.0556                 1.0798
 Frc consts  --     1.3390                 1.3669                 1.3985
 IR Inten    --    10.6151                 4.5990                 3.1628

                    40                     41                     42
                     A                      A                      A
 Frequencies --  1486.2894              1489.8019              1491.4827
 Red. masses --     1.0462                 1.0601                 1.0565
 Frc consts  --     1.3616                 1.3862                 1.3847
 IR Inten    --     1.1081                 3.6750                 1.8817

                    43                     44                     45
                     A                      A                      A
 Frequencies --  1509.9441              1517.9479              1522.3048
 Red. masses --     1.0677                 1.0604                 1.0587
 Frc consts  --     1.4342                 1.4396                 1.4455
 IR Inten    --     7.1136                11.0884                13.0559

                    46                     47                     48
                     A                      A                      A
 Frequencies --  1839.5057              3032.3841              3035.9469
 Red. masses --    10.5997                 1.0352                 1.0369
 Frc consts  --    21.1322                 5.6083                 5.6307
 IR Inten    --   172.7421                24.8797                17.8715

                    49                     50                     51
                     A                      A                      A
 Frequencies --  3045.2386              3052.0427              3062.1728
 Red. masses --     1.0387                 1.0581                 1.0368
 Frc consts  --     5.6751                 5.8071                 5.7280
 IR Inten    --    19.7273                 9.3610                 2.4804

                    52                     53                     54
                     A                      A                      A
 Frequencies --  3102.3154              3103.7507              3111.0310
 Red. masses --     1.1026                 1.1020                 1.1025
 Frc consts  --     6.2525                 6.2545                 6.2868
 IR Inten    --     6.8350                21.3461                 5.3851

                    55                     56                     57
                     A                      A                      A
 Frequencies --  3113.7944              3116.2515              3123.0956
 Red. masses --     1.1020                 1.1012                 1.0999
 Frc consts  --     6.2950                 6.3007                 6.3207
 IR Inten    --    16.4225                26.2184                36.2194

                    58                     59                     60
                     A                      A                      A
 Frequencies --  3131.0786              3135.3718              3172.1510
 Red. masses --     1.0974                 1.1014                 1.1051
 Frc consts  --     6.3385                 6.3791                 6.5519
 IR Inten    --     2.7388                12.2960                 6.0137

 - Thermochemistry -
 -------------------
 Temperature   298.150 Kelvin.  Pressure   1.00000 Atm.
 Atom     1 has atomic number  6 and mass  12.00000

 Molecular mass:   114.10447 amu.
 Principal axes and moments of inertia in atomic units:
                           1         2         3
     Eigenvalues --   576.771241298.188471446.82616
           X            0.99915   0.04091  -0.00420
           Y           -0.04093   0.99916  -0.00357
           Z            0.00405   0.00373   0.99998
 This molecule is an asymmetric top.
 Rotational symmetry number  1.
 Warning -- assumption of classical behavior for rotation
           may cause significant error
 Rotational temperatures (Kelvin)      0.15017     0.06672     0.05986
 Rotational constants (GHZ):           3.12904     1.39020     1.24738
 Zero-point vibrational energy     520769.5 (Joules/Mol)
                                  124.46689 (Kcal/Mol)
 Warning -- explicit consideration of  15 degrees of freedom as
           vibrations may cause significant error
 Vibrational temperatures:     82.27   158.56   246.51   283.81   323.28
          (Kelvin)            383.68   434.49   442.77   477.56   542.68
                              577.13   614.77   632.94   772.95   877.25
                             1089.05  1194.51  1294.67  1351.46  1369.80
                             1373.87  1386.22  1424.14  1465.69  1538.06
                             1554.11  1674.52  1766.47  1806.94  1829.76
                             1891.93  1943.34  2005.20  2013.26  2026.56
                             2064.44  2114.59  2133.00  2133.13  2138.44
                             2143.49  2145.91  2172.47  2183.99  2190.25
                             2646.64  4362.92  4368.05  4381.41  4391.20
                             4405.78  4463.53  4465.60  4476.07  4480.05
                             4483.59  4493.43  4504.92  4511.10  4564.01

 Zero-point correction=                           0.198351 (Hartree/Particle)
 Thermal correction to Energy=                    0.208312
 Thermal correction to Enthalpy=                  0.209256
 Thermal correction to Gibbs Free Energy=         0.164128
 Sum of electronic and zero-point Energies=           -350.159143
 Sum of electronic and thermal Energies=              -350.149182
 Sum of electronic and thermal Enthalpies=            -350.148238
 Sum of electronic and thermal Free Energies=         -350.193366

                     E (Thermal)             CV                S
                      KCal/Mol        Cal/Mol-Kelvin    Cal/Mol-Kelvin
 Total                  130.718             37.083             94.981
 Electronic               0.000              0.000              0.000
 Translational            0.889              2.981             40.111
 Rotational               0.889              2.981             28.473
 Vibrational            128.940             31.121             26.396
 Vibration     1          0.596              1.975              4.552
 Vibration     2          0.606              1.941              3.265
 Vibration     3          0.626              1.878              2.421
 Vibration     4          0.637              1.844              2.158
 Vibration     5          0.649              1.803              1.921
 Vibration     6          0.672              1.734              1.618
 Vibration     7          0.694              1.670              1.406
 Vibration     8          0.698              1.659              1.374
 Vibration     9          0.714              1.612              1.251
 Vibration    10          0.748              1.519              1.050
 Vibration    11          0.767              1.468              0.959
 Vibration    12          0.789              1.411              0.868
 Vibration    13          0.800              1.383              0.827
 Vibration    14          0.892              1.168              0.571
 Vibration    15          0.969              1.011              0.433

 Normal termination of Gaussian 09 at Wed Oct  4 23:12:27 2017.
