 Gaussian 09, Revision B.01,
 Gaussian 09:  EM64L-G09RevB.01 12-Aug-2010

 --------------------------------------------------------------
 # m062x/6-311+g(2df,2p) opt=(verytight,gdiis) freq IOP(2/16=3)
 --------------------------------------------------------------

 ------------------------------------
 InChI=1S/C3H3O3/c1-6-3(5)2-4/h1H3/u2
 ------------------------------------
 Symbolic Z-matrix:
 Charge =  0 Multiplicity = 2

 SCF Done:  E(UM062X) =  -341.673223683     A.U. after   16 cycles
 SCF Done:  E(UM062X) =  -341.704835490     A.U. after   16 cycles
 SCF Done:  E(UM062X) =  -341.707661386     A.U. after   17 cycles
 SCF Done:  E(UM062X) =  -341.708038761     A.U. after   13 cycles
 SCF Done:  E(UM062X) =  -341.708120375     A.U. after   13 cycles
 SCF Done:  E(UM062X) =  -341.708125003     A.U. after   13 cycles
 SCF Done:  E(UM062X) =  -341.708125179     A.U. after   18 cycles
 SCF Done:  E(UM062X) =  -341.708125409     A.U. after   17 cycles
 SCF Done:  E(UM062X) =  -341.708125505     A.U. after   11 cycles
 SCF Done:  E(UM062X) =  -341.708125506     A.U. after    9 cycles
 SCF Done:  E(UM062X) =  -341.714093924     A.U. after   13 cycles
 SCF Done:  E(UM062X) =  -341.714094017     A.U. after   10 cycles
 SCF Done:  E(UM062X) =  -341.714093819     A.U. after   10 cycles
 SCF Done:  E(UM062X) =  -341.714093851     A.U. after   10 cycles
 SCF Done:  E(UM062X) =  -341.714093860     A.U. after    9 cycles
 SCF Done:  E(UM062X) =  -341.714093858     A.U. after    5 cycles
 SCF Done:  E(UM062X) =  -341.714093858     A.U. after    4 cycles
 SCF Done:  E(UM062X) =  -341.714093857     A.U. after    4 cycles
 SCF Done:  E(UM062X) =  -341.714093858     A.U. after    3 cycles
 Optimization completed.
    -- Stationary point found.
 Normal termination of Gaussian 09 at Fri Mar 10 13:47:12 2017.

 ----------------------------------------------------------------------
 #N Geom=AllCheck Guess=TCheck SCRF=Check Test GenChk UM062X/6-311+G(2d
 f,2p) Freq
 ----------------------------------------------------------------------

 InChI=1S/C3H3O3/c1-6-3(5)2-4/h1H3/u2
 ------------------------------------
 Redundant internal coordinates taken from checkpoint file:
 /gss_gpfs_scratch/westgroup/rwest-autotst-1/Gau-32298.chk
 Charge =  0 Multiplicity = 2

                         Standard orientation:
 ---------------------------------------------------------------------
 Center     Atomic      Atomic             Coordinates (Angstroms)
 Number     Number       Type             X           Y           Z
 ---------------------------------------------------------------------
      1          6           0       -2.155335   -0.370401    0.100384
      2          6           0        0.066740    0.295576   -0.082498
      3          8           0       -0.777576   -0.723067   -0.087077
      4          6           0        1.470545   -0.186400   -0.416357
      5          1           0       -2.288443    0.107828    1.067963
      6          1           0       -2.703990   -1.303808    0.052496
      7          1           0       -2.472650    0.308917   -0.687579
      8          8           0       -0.194994    1.452508    0.045841
      9          8           0        2.369243   -0.422640    0.285980
 ---------------------------------------------------------------------

 SCF Done:  E(UM062X) =  -341.714093858     A.U. after    1 cycles

 The electronic state is 2-A.
 Alpha  occ. eigenvalues --  -19.70980 -19.70676 -19.65240 -10.71585 -10.66503
 Alpha  occ. eigenvalues --  -10.61536  -1.28239  -1.25926  -1.18691  -0.87948
 Alpha  occ. eigenvalues --   -0.76980  -0.67449  -0.62681  -0.61095  -0.59979
 Alpha  occ. eigenvalues --   -0.55916  -0.53736  -0.52604  -0.49654  -0.46820
 Alpha  occ. eigenvalues --   -0.41648  -0.41349  -0.28428
 Alpha virt. eigenvalues --   -0.01500   0.00532   0.01768   0.03578   0.03748
 Alpha virt. eigenvalues --    0.04507   0.05802   0.07234   0.07498   0.09812
 Alpha virt. eigenvalues --    0.10127   0.11602   0.13755   0.15566   0.16787

  Beta  occ. eigenvalues --  -19.70628 -19.70265 -19.65108 -10.71324 -10.65900
  Beta  occ. eigenvalues --  -10.61531  -1.27723  -1.24054  -1.18314  -0.87185
  Beta  occ. eigenvalues --   -0.75070  -0.66982  -0.60874  -0.60130  -0.59586
  Beta  occ. eigenvalues --   -0.53298  -0.51809  -0.51350  -0.47371  -0.46351
  Beta  occ. eigenvalues --   -0.41043  -0.40261
  Beta virt. eigenvalues --   -0.06642  -0.00167   0.00582   0.02165   0.03652
  Beta virt. eigenvalues --    0.04031   0.04668   0.06669   0.07092   0.07369
  Beta virt. eigenvalues --    0.09800   0.10299   0.11239   0.13527   0.15462

 Mulliken atomic charges:
              1
     1  C   -0.199435
     2  C    0.308219
     3  O   -0.128893
     4  C    0.052399
     5  H    0.145135
     6  H    0.140719
     7  H    0.143262
     8  O   -0.337882
     9  O   -0.123524
 Sum of Mulliken atomic charges =   0.00000

 Dipole moment (field-independent basis, Debye):
    X=             -2.8531    Y=             -1.2261    Z=             -0.1055  Tot=              3.1072
 Quadrupole moment (field-independent basis, Debye-Ang):
   XX=            -31.5451   YY=            -37.9556   ZZ=            -33.5850
   XY=              2.0712   XZ=             -0.8462   YZ=             -0.4107

  Exact polarizability:  58.416  -1.869  42.327  -0.009   0.480  35.304
 Approx polarizability:  58.780  -3.883  54.716   2.340   0.756  43.455

                     1                      2                      3
                     A                      A                      A
 Frequencies --   101.6735               132.6994               191.7018
 Red. masses --     9.0955                 3.5548                 1.1300
 Frc consts  --     0.0554                 0.0369                 0.0245
 IR Inten    --     0.7746                 1.3421                 0.0610

                     4                      5                      6
                     A                      A                      A
 Frequencies --   293.2145               311.6785               429.5452
 Red. masses --     4.2778                 9.6171                 8.8050
 Frc consts  --     0.2167                 0.5504                 0.9572
 IR Inten    --    11.5753                 9.8707                 8.3552

                     7                      8                      9
                     A                      A                      A
 Frequencies --   536.8720               790.9048               861.4112
 Red. masses --     9.7694                11.7348                 5.3163
 Frc consts  --     1.6590                 4.3249                 2.3242
 IR Inten    --     2.2005                16.6073                24.0249

                    10                     11                     12
                     A                      A                      A
 Frequencies --  1033.4010              1189.4650              1216.8732
 Red. masses --     7.9473                 1.2797                 1.5394
 Frc consts  --     5.0005                 1.0668                 1.3431
 IR Inten    --    10.0294                 1.3233                28.7933

                    13                     14                     15
                     A                      A                      A
 Frequencies --  1281.8294              1484.5003              1500.7844
 Red. masses --     7.0999                 1.1938                 1.0415
 Frc consts  --     6.8732                 1.5501                 1.3821
 IR Inten    --   493.1411                14.4321                11.1701

                    16                     17                     18
                     A                      A                      A
 Frequencies --  1508.5237              1853.5347              2037.3238
 Red. masses --     1.0476                12.2173                13.3473
 Frc consts  --     1.4045                24.7302                32.6411
 IR Inten    --    11.3979               364.7800               117.1146

                    19                     20                     21
                     A                      A                      A
 Frequencies --  3084.0625              3167.6854              3197.0240
 Red. masses --     1.0307                 1.1060                 1.1079
 Frc consts  --     5.7758                 6.5389                 6.6720
 IR Inten    --    17.3136                 8.2457                 3.8796

 - Thermochemistry -
 -------------------
 Temperature   298.150 Kelvin.  Pressure   1.00000 Atm.
 Atom     1 has atomic number  6 and mass  12.00000

 Molecular mass:    87.00822 amu.
 Principal axes and moments of inertia in atomic units:
                           1         2         3
     Eigenvalues --   197.17159 733.52356 892.36018
           X            0.99984   0.01706  -0.00474
           Y           -0.01708   0.99985  -0.00406
           Z            0.00467   0.00414   0.99998
 This molecule is an asymmetric top.
 Rotational symmetry number  1.
 Rotational temperatures (Kelvin)      0.43928     0.11808     0.09706
 Rotational constants (GHZ):           9.15315     2.46037     2.02244
 Zero-point vibrational energy     156739.0 (Joules/Mol)
                                   37.46151 (Kcal/Mol)
 Warning -- explicit consideration of   7 degrees of freedom as
           vibrations may cause significant error
 Vibrational temperatures:    146.29   190.92   275.82   421.87   448.44
          (Kelvin)            618.02   772.44  1137.93  1239.38  1486.83
                             1711.37  1750.81  1844.26  2135.86  2159.29
                             2170.43  2666.82  2931.25  4437.27  4557.59
                             4599.80

 Zero-point correction=                           0.059699 (Hartree/Particle)
 Thermal correction to Energy=                    0.066062
 Thermal correction to Enthalpy=                  0.067007
 Thermal correction to Gibbs Free Energy=         0.028791
 Sum of electronic and zero-point Energies=           -341.654395
 Sum of electronic and thermal Energies=              -341.648031
 Sum of electronic and thermal Enthalpies=            -341.647087
 Sum of electronic and thermal Free Energies=         -341.685302

                     E (Thermal)             CV                S
                      KCal/Mol        Cal/Mol-Kelvin    Cal/Mol-Kelvin
 Total                   41.455             19.977             80.431
 Electronic               0.000              0.000              1.377
 Translational            0.889              2.981             39.303
 Rotational               0.889              2.981             26.359
 Vibrational             39.677             14.016             13.391
 Vibration     1          0.604              1.948              3.422
 Vibration     2          0.613              1.921              2.907
 Vibration     3          0.634              1.851              2.211
 Vibration     4          0.688              1.686              1.455
 Vibration     5          0.700              1.651              1.353
 Vibration     6          0.791              1.406              0.860
 Vibration     7          0.892              1.168              0.572

 Normal termination of Gaussian 09 at Fri Mar 10 13:55:38 2017.
