 Gaussian 09, Revision B.01,
 Gaussian 09:  EM64L-G09RevB.01 12-Aug-2010

 --------------------------------------------------------------
 # m062x/6-311+g(2df,2p) opt=(verytight,gdiis) freq IOP(2/16=3)
 --------------------------------------------------------------

 -------------------------------------------------
 InChI=1S/C6H11O/c1-3-4-5-6(2)7/h3H,4-5H2,1-2H3/u3
 -------------------------------------------------
 Symbolic Z-matrix:
 Charge =  0 Multiplicity = 2

 SCF Done:  E(UM062X) =  -310.366493331     A.U. after   14 cycles
 SCF Done:  E(UM062X) =  -310.375656707     A.U. after   12 cycles
 SCF Done:  E(UM062X) =  -310.380279875     A.U. after   13 cycles
 SCF Done:  E(UM062X) =  -310.380953614     A.U. after   12 cycles
 SCF Done:  E(UM062X) =  -310.381145185     A.U. after   11 cycles
 SCF Done:  E(UM062X) =  -310.381179047     A.U. after   11 cycles
 SCF Done:  E(UM062X) =  -310.381193535     A.U. after   11 cycles
 SCF Done:  E(UM062X) =  -310.381203255     A.U. after   10 cycles
 SCF Done:  E(UM062X) =  -310.381206184     A.U. after   10 cycles
 SCF Done:  E(UM062X) =  -310.381207236     A.U. after   10 cycles
 SCF Done:  E(UM062X) =  -310.383316625     A.U. after    7 cycles
 SCF Done:  E(UM062X) =  -310.383316626     A.U. after    4 cycles
 SCF Done:  E(UM062X) =  -310.383316622     A.U. after    5 cycles
 SCF Done:  E(UM062X) =  -310.383316624     A.U. after    4 cycles
 SCF Done:  E(UM062X) =  -310.383316623     A.U. after    3 cycles
 SCF Done:  E(UM062X) =  -310.383316624     A.U. after    2 cycles
 SCF Done:  E(UM062X) =  -310.383316623     A.U. after    4 cycles
 SCF Done:  E(UM062X) =  -310.383316624     A.U. after    2 cycles
 SCF Done:  E(UM062X) =  -310.383316623     A.U. after    2 cycles
 Optimization completed.
    -- Stationary point found.
 Normal termination of Gaussian 09 at Sun Sep 24 23:37:31 2017.

 ----------------------------------------------------------------------
 #N Geom=AllCheck Guess=TCheck SCRF=Check Test GenChk UM062X/6-311+G(2d
 f,2p) Freq
 ----------------------------------------------------------------------

 InChI=1S/C6H11O/c1-3-4-5-6(2)7/h3H,4-5H2,1-2H3/u3
 -------------------------------------------------
 Redundant internal coordinates taken from checkpoint file:
 /gss_gpfs_scratch/harms.n/comparerTST/Gau-4359.chk
 Charge =  0 Multiplicity = 2

                         Standard orientation:
 ---------------------------------------------------------------------
 Center     Atomic      Atomic             Coordinates (Angstroms)
 Number     Number       Type             X           Y           Z
 ---------------------------------------------------------------------
      1          6           0       -0.871123    0.255675   -0.055871
      2          6           0        0.373793   -0.615465   -0.009070
      3          6           0       -3.442810    0.147599    0.102843
      4          6           0        2.941591   -0.635178    0.070734
      5          6           0       -2.132341   -0.532754   -0.067706
      6          6           0        1.666952    0.172306    0.000366
      7          1           0       -0.864437    0.944300    0.794811
      8          1           0       -0.810033    0.909568   -0.937057
      9          1           0        0.403663   -1.297156   -0.865501
     10          1           0        0.363488   -1.261268    0.874575
     11          1           0       -3.701975    0.754375   -0.774896
     12          1           0       -4.253538   -0.562723    0.255728
     13          1           0       -3.421625    0.833089    0.953814
     14          1           0        3.802318    0.026623    0.061191
     15          1           0        2.948212   -1.239293    0.979074
     16          1           0        2.992961   -1.324729   -0.772948
     17          1           0       -2.110897   -1.541948   -0.459642
     18          8           0        1.679437    1.375758   -0.044615
 ---------------------------------------------------------------------

 SCF Done:  E(UM062X) =  -310.383316623     A.U. after    1 cycles

 The electronic state is 2-A.
 Alpha  occ. eigenvalues --  -19.61570 -10.62862 -10.54559 -10.54150 -10.54014
 Alpha  occ. eigenvalues --  -10.53536 -10.52771  -1.17234  -0.91287  -0.86406
 Alpha  occ. eigenvalues --   -0.82600  -0.74506  -0.65716  -0.61272  -0.55646
 Alpha  occ. eigenvalues --   -0.54777  -0.53170  -0.50959  -0.49712  -0.47705
 Alpha  occ. eigenvalues --   -0.47320  -0.45247  -0.43235  -0.41549  -0.41071
 Alpha  occ. eigenvalues --   -0.40936  -0.32400  -0.24183
 Alpha virt. eigenvalues --    0.01146   0.02341   0.02394   0.03391   0.04383
 Alpha virt. eigenvalues --    0.04480   0.05111   0.05958   0.06418   0.07367
 Alpha virt. eigenvalues --    0.07853   0.08292   0.08753   0.10125   0.10509

  Beta  occ. eigenvalues --  -19.61564 -10.62864 -10.54549 -10.54014 -10.53603
  Beta  occ. eigenvalues --  -10.53454 -10.52833  -1.17220  -0.90376  -0.85637
  Beta  occ. eigenvalues --   -0.82154  -0.74082  -0.63517  -0.61164  -0.55228
  Beta  occ. eigenvalues --   -0.54576  -0.52878  -0.50103  -0.49214  -0.46954
  Beta  occ. eigenvalues --   -0.46517  -0.44787  -0.42947  -0.41154  -0.40656
  Beta  occ. eigenvalues --   -0.40503  -0.32349
  Beta virt. eigenvalues --   -0.01671   0.01026   0.02188   0.02620   0.03333
  Beta virt. eigenvalues --    0.04130   0.04232   0.05161   0.05851   0.06273
  Beta virt. eigenvalues --    0.07084   0.07868   0.08189   0.08610   0.09902

 Mulliken atomic charges:
              1
     1  C   -0.288794
     2  C   -0.288971
     3  C   -0.597270
     4  C   -0.559141
     5  C   -0.014441
     6  C    0.386371
     7  H    0.176522
     8  H    0.176970
     9  H    0.172840
    10  H    0.175941
    11  H    0.139291
    12  H    0.138955
    13  H    0.136658
    14  H    0.165021
    15  H    0.144123
    16  H    0.142050
    17  H    0.173661
    18  O   -0.379786
 Sum of Mulliken atomic charges =   0.00000

 Dipole moment (field-independent basis, Debye):
    X=             -0.1936    Y=             -2.6321    Z=             -0.0654  Tot=              2.6400
 Quadrupole moment (field-independent basis, Debye-Ang):
   XX=            -42.4907   YY=            -48.3148   ZZ=            -44.1261
   XY=             -5.6344   XZ=              0.5563   YZ=              0.6401

  Exact polarizability:  91.439  -2.140  74.181   0.155  -0.434  59.521
 Approx polarizability:  84.990  -0.337  94.204   0.116  -0.586  76.771

                     1                      2                      3
                     A                      A                      A
 Frequencies --    43.1250                74.9559                90.1151
 Red. masses --     1.6293                 2.2662                 1.7381
 Frc consts  --     0.0018                 0.0075                 0.0083
 IR Inten    --     0.6949                 0.0867                 1.7796

                     4                      5                      6
                     A                      A                      A
 Frequencies --   124.4535               132.7370               150.8526
 Red. masses --     2.2207                 1.2641                 1.4778
 Frc consts  --     0.0203                 0.0131                 0.0198
 IR Inten    --     3.3494                 0.1450                 1.0683

                     7                      8                      9
                     A                      A                      A
 Frequencies --   300.5268               323.5426               399.2846
 Red. masses --     3.0623                 4.0000                 1.3156
 Frc consts  --     0.1630                 0.2467                 0.1236
 IR Inten    --     3.0843                 0.9225                26.4629

                    10                     11                     12
                     A                      A                      A
 Frequencies --   463.2930               480.9502               604.5316
 Red. masses --     2.5535                 1.8849                 4.1656
 Frc consts  --     0.3229                 0.2569                 0.8969
 IR Inten    --     3.7349                 0.1010                13.4155

                    13                     14                     15
                     A                      A                      A
 Frequencies --   729.7840               847.1190               902.8167
 Red. masses --     1.2678                 3.4346                 1.4102
 Frc consts  --     0.3978                 1.4522                 0.6772
 IR Inten    --     1.2444                 0.2735                 0.1491

                    16                     17                     18
                     A                      A                      A
 Frequencies --   916.9069               971.6531               991.4038
 Red. masses --     1.7148                 1.8139                 1.2827
 Frc consts  --     0.8494                 1.0090                 0.7428
 IR Inten    --     4.3278                 8.0640                 1.3041

                    19                     20                     21
                     A                      A                      A
 Frequencies --  1053.1224              1076.4062              1136.7754
 Red. masses --     1.7471                 2.3930                 2.3210
 Frc consts  --     1.1416                 1.6336                 1.7671
 IR Inten    --     1.5068                 0.3755                 0.6633

                    22                     23                     24
                     A                      A                      A
 Frequencies --  1159.0250              1184.1517              1198.9100
 Red. masses --     1.8666                 1.4307                 1.9116
 Frc consts  --     1.4774                 1.1820                 1.6189
 IR Inten    --     3.7756                 9.3627                42.6419

                    25                     26                     27
                     A                      A                      A
 Frequencies --  1289.0334              1307.9906              1377.0954
 Red. masses --     1.4312                 1.1297                 1.4319
 Frc consts  --     1.4012                 1.1387                 1.5998
 IR Inten    --     8.3332                 0.1476                13.0611

                    28                     29                     30
                     A                      A                      A
 Frequencies --  1399.6189              1418.3575              1434.5157
 Red. masses --     1.4689                 1.4132                 1.8425
 Frc consts  --     1.6954                 1.6750                 2.2340
 IR Inten    --    51.9386                26.3383                 2.6837

                    31                     32                     33
                     A                      A                      A
 Frequencies --  1459.5798              1474.3137              1474.7557
 Red. masses --     1.1067                 1.0856                 1.0663
 Frc consts  --     1.3891                 1.3903                 1.3664
 IR Inten    --     3.7394                 8.0999                20.0877

                    34                     35                     36
                     A                      A                      A
 Frequencies --  1480.7069              1488.5936              1494.0113
 Red. masses --     1.0598                 1.0472                 1.0534
 Frc consts  --     1.3691                 1.3671                 1.3854
 IR Inten    --     8.7022                10.1233                 6.8452

                    37                     38                     39
                     A                      A                      A
 Frequencies --  1846.3692              2996.6883              3004.3714
 Red. masses --    10.8744                 1.0694                 1.0502
 Frc consts  --    21.8421                 5.6582                 5.5848
 IR Inten    --   170.4820                 8.7728                28.4254

                    40                     41                     42
                     A                      A                      A
 Frequencies --  3040.5126              3049.7313              3060.9238
 Red. masses --     1.0700                 1.0785                 1.0856
 Frc consts  --     5.8279                 5.9102                 5.9926
 IR Inten    --     5.4424                13.4731                15.7092

                    43                     44                     45
                     A                      A                      A
 Frequencies --  3062.1080              3081.9694              3124.2166
 Red. masses --     1.0379                 1.0980                 1.0975
 Frc consts  --     5.7339                 6.1450                 6.3116
 IR Inten    --     3.7426                 9.8958                13.8141

                    46                     47                     48
                     A                      A                      A
 Frequencies --  3127.8444              3175.6900              3184.4460
 Red. masses --     1.0987                 1.1036                 1.0883
 Frc consts  --     6.3331                 6.5575                 6.5023
 IR Inten    --     5.0140                 5.2301                16.3395

 - Thermochemistry -
 -------------------
 Temperature   298.150 Kelvin.  Pressure   1.00000 Atm.
 Atom     1 has atomic number  6 and mass  12.00000

 Molecular mass:    99.08099 amu.
 Principal axes and moments of inertia in atomic units:
                           1         2         3
     Eigenvalues --   225.576401710.628861888.15745
           X            0.99972  -0.02354   0.00049
           Y            0.02353   0.99967   0.00985
           Z           -0.00072  -0.00983   0.99995
 This molecule is an asymmetric top.
 Rotational symmetry number  1.
 Rotational temperatures (Kelvin)      0.38397     0.05063     0.04587
 Rotational constants (GHZ):           8.00058     1.05502     0.95582
 Zero-point vibrational energy     407985.7 (Joules/Mol)
                                   97.51093 (Kcal/Mol)
 Warning -- explicit consideration of  12 degrees of freedom as
           vibrations may cause significant error
 Vibrational temperatures:     62.05   107.84   129.66   179.06   190.98
          (Kelvin)            217.04   432.39   465.51   574.48   666.57
                              691.98   869.78  1050.00  1218.81  1298.95
                             1319.22  1397.99  1426.41  1515.21  1548.71
                             1635.56  1667.58  1703.73  1724.96  1854.63
                             1881.90  1981.33  2013.74  2040.70  2063.95
                             2100.01  2121.21  2121.84  2130.40  2141.75
                             2149.55  2656.51  4311.56  4322.61  4374.61
                             4387.88  4403.98  4405.68  4434.26  4495.05
                             4500.26  4569.10  4581.70

 Zero-point correction=                           0.155394 (Hartree/Particle)
 Thermal correction to Energy=                    0.164956
 Thermal correction to Enthalpy=                  0.165900
 Thermal correction to Gibbs Free Energy=         0.119546
 Sum of electronic and zero-point Energies=           -310.227923
 Sum of electronic and thermal Energies=              -310.218361
 Sum of electronic and thermal Enthalpies=            -310.217417
 Sum of electronic and thermal Free Energies=         -310.263771

                     E (Thermal)             CV                S
                      KCal/Mol        Cal/Mol-Kelvin    Cal/Mol-Kelvin
 Total                  103.511             31.899             97.561
 Electronic               0.000              0.000              1.377
 Translational            0.889              2.981             39.691
 Rotational               0.889              2.981             28.079
 Vibrational            101.734             25.937             28.414
 Vibration     1          0.595              1.980              5.110
 Vibration     2          0.599              1.966              4.019
 Vibration     3          0.602              1.956              3.658
 Vibration     4          0.610              1.929              3.030
 Vibration     5          0.613              1.921              2.906
 Vibration     6          0.618              1.902              2.661
 Vibration     7          0.693              1.673              1.414
 Vibration     8          0.708              1.628              1.292
 Vibration     9          0.765              1.472              0.965
 Vibration    10          0.821              1.331              0.757
 Vibration    11          0.837              1.292              0.708
 Vibration    12          0.963              1.022              0.442

 Normal termination of Gaussian 09 at Mon Sep 25 00:15:36 2017.
